120
Atoms. Timestep: 0
1 2.34 2.6 13.406
1 1.93241 2.93336 0.705451
1 1.58037 3.0839 12.2694
1 0.399467 3.82203 12.5183
1 2.44942 0.973509 11.9153
1 2.11394 13.6251 11.7133
1 3.08683 1.37813 13.1502
1 3.33687 0.449838 0.188256
1 1.6478 2.01507 11.2729
1 0.534648 1.64085 10.4712
1 0.772569 3.78138 0.928341
1 13.9881 4.2965 13.8594
1 0.20559 3.0982 2.0756
1 12.8089 2.93248 2.15562
1 2.19015 2.03654 1.79243
1 2.75757 0.779314 1.49265
1 1.08411 2.15404 2.75146
1 0.537181 1.03268 3.44732
1 12.521 4.07947 13.9518
1 11.9624 3.45097 1.10482
1 12.0561 3.50591 12.6704
1 11.0132 2.55622 12.5792
1 13.2229 3.2867 11.8667
1 13.2851 2.26082 10.8943
1 10.9041 2.42668 1.01412
1 10.3463 2.02581 13.7703
1 11.152 1.45537 2.03697
1 10.8165 0.107009 1.83493
1 12.2563 1.82388 2.91486
1 13.0599 0.861433 3.59516
1 9.9291 0.630736 13.562
1 10.179 13.7025 0.600034
1 10.5085 0.301169 12.2576
1 11.0758 13.0439 11.9577
1 11.121 1.46429 11.6488
1 12.2026 1.34668 10.7528
1 10.9257 12.4808 0.343934
1 11.3334 12.1471 13.0446
1 11.6855 11.9967 1.48056
1 12.8664 11.2585 1.23187
1 11.6182 13.0654 2.47725
1 12.7314 13.4396 3.27898
1 12.4934 11.299 12.8219
1 13.2778 10.7839 13.8908
1 13.0604 11.9823 11.6747
1 0.457137 12.148 11.5947
1 12.1819 12.9264 10.9988
1 12.7288 0.047764 10.3029
1 0.745045 11.001 13.7984
1 1.30361 11.6295 12.6455
1 1.20994 11.5746 1.07982
1 2.25279 12.5242 1.17108
1 0.043093 11.7937 1.88352
1 13.981 12.8196 2.85596
1 2.36198 12.6538 12.7362
1 2.91977 13.0547 13.9799
1 1.00967 13.2566 10.8355
1 0.206134 0.218988 10.1551
1 2.14508 13.6162 2.10148
1 1.06341 13.7338 2.99745
2 8.30372 10.4521 12.6492
2 7.7461 11.078 13.804
2 7.45655 9.93617 11.5979
2 6.05975 10.1016 11.6801
2 9.11307 8.45891 11.7123
2 9.4464 7.10976 11.9131
2 9.36231 9.42788 12.737
2 9.92089 9.02451 13.9797
2 8.00852 8.829 10.8352
2 7.2037 7.86786 10.1543
2 6.27933 11.2953 13.8976
2 5.49378 10.7833 12.8285
2 5.86945 10.8177 1.23751
2 4.68782 10.081 1.48659
2 8.21235 10.5029 1.0842
2 9.25468 9.55241 1.17256
2 7.04629 10.283 1.88907
2 6.98429 9.25602 2.86046
2 4.33344 9.93544 13.0507
2 3.9267 9.59951 0.349816
2 4.07393 9.04133 11.9618
2 3.50726 7.78377 12.2608
2 5.18011 9.15978 11.0029
2 5.72661 8.03947 10.3051
2 3.18019 8.37759 0.604502
2 2.92881 7.45154 13.565
2 3.81951 7.97047 1.83743
2 4.15279 6.62134 2.03831
2 4.62145 9.01074 2.48194
2 5.73451 8.63549 3.28346
2 3.34506 6.05582 13.7709
2 3.90355 5.65239 1.01362
2 4.01128 5.52798 12.5781
2 5.05357 4.57743 12.6665
2 4.11919 6.62168 11.6496
2 5.20021 6.74031 10.7533
2 4.96209 4.62817 1.10146
2 5.51974 4.00228 13.9467
2 5.80926 5.14413 2.15269
2 7.20605 4.97878 2.07035
2 5.25731 6.25128 2.91537
2 6.06212 7.21241 3.59634
2 6.98651 3.78486 13.8529
2 7.77205 4.29691 0.922121
2 7.39637 4.26253 12.5131
2 8.57801 4.99929 12.264
2 6.21957 4.79732 11.8616
2 6.28155 5.82434 10.8902
2 8.93238 5.14479 0.699845
2 9.33913 5.48074 13.4008
2 9.19187 6.03894 1.78877
2 9.75849 7.29651 1.48974
2 8.08567 5.92055 2.74757
2 7.5392 7.04083 3.4454
2 10.0856 6.70265 13.1461
2 10.337 7.62872 0.185616
2 8.64443 6.06952 11.2686
2 7.53133 6.44484 10.4672
2 9.14662 8.45862 2.10094
2 8.06561 8.33999 2.99722
120
Atoms. Timestep: 10
1 2.33356 2.61141 13.4084
1 1.96179 2.96709 0.728806
1 1.6505 3.10796 12.2535
1 0.406591 3.83958 12.4288
1 2.51373 0.970689 11.8399
1 2.17167 13.6154 11.6717
1 3.13882 1.40383 13.1417
1 3.36377 0.46439 0.236692
1 1.71844 2.02947 11.2112
1 0.515492 1.69765 10.4309
1 0.762798 3.78926 0.986323
1 13.9634 4.26164 13.8786
1 0.152343 3.18108 2.15247
1 12.7865 3.03134 2.23844
1 2.27085 2.11048 1.86489
1 2.85084 0.813656 1.61599
1 1.06003 2.21382 2.75086
1 0.560485 1.03683 3.47647
1 12.4664 4.04051 13.9212
1 11.9232 3.48053 1.14136
1 12.0689 3.48791 12.664
1 10.9801 2.54385 12.5799
1 13.1866 3.36188 11.7736
1 13.2523 2.32523 10.7645
1 10.8311 2.45105 1.04567
1 10.2882 2.07757 13.7853
1 11.0957 1.47722 2.07974
1 10.721 0.136337 1.91983
1 12.2182 1.84662 2.90273
1 13.0615 0.817396 3.50251
1 9.88118 0.649244 13.5746
1 10.1417 13.6927 0.643563
1 10.4438 0.310638 12.2137
1 11.0481 13.0281 12.0039
1 11.0732 1.46309 11.635
1 12.1479 1.37437 10.6607
1 10.9406 12.443 0.373181
1 11.3427 12.1422 13.0808
1 11.65 11.9272 1.50085
1 12.8766 11.1863 1.32886
1 11.5729 13.068 2.44947
1 12.7294 13.3592 3.27214
1 12.5244 11.2932 12.8106
1 13.3431 10.813 13.9132
1 13.0688 11.8781 11.6185
1 0.455757 12.0538 11.5392
1 12.1447 12.8659 10.9577
1 12.673 0.0596069 10.2497
1 0.83114 10.9734 13.7929
1 1.33865 11.5889 12.6149
1 1.18704 11.6001 1.05913
1 2.24693 12.5696 1.14156
1 0.0572825 11.7454 1.91264
1 14.0038 12.7471 2.92883
1 2.3648 12.644 12.7017
1 2.95275 13.0058 13.9576
1 1.04638 13.2108 10.8307
1 0.217719 0.216046 10.1863
1 2.20408 13.6326 2.12436
1 1.06156 13.7191 3.00822
2 8.33529 10.4993 12.5912
2 7.77934 11.0874 13.8107
2 7.46292 9.9632 11.5825
2 6.09019 10.1426 11.693
2 9.14059 8.43485 11.6934
2 9.45776 7.10119 11.9013
2 9.40988 9.43665 12.6928
2 9.93439 9.04383 13.9674
2 8.0577 8.82767 10.795
2 7.22727 7.83468 10.1785
2 6.25869 11.2969 13.9474
2 5.47701 10.7911 12.85
2 5.86386 10.8172 1.31236
2 4.65989 10.0773 1.50147
2 8.20568 10.5354 1.11128
2 9.29394 9.56165 1.19004
2 7.06732 10.3534 1.93908
2 7.00507 9.31346 2.91977
2 4.33564 9.92405 13.0632
2 3.91597 9.59939 0.347579
2 4.04979 9.06062 11.9252
2 3.41616 7.78767 12.1462
2 5.21889 9.21786 11.0495
2 5.71834 8.02331 10.3823
2 3.14999 8.37507 0.626598
2 2.94638 7.44759 13.5359
2 3.76743 7.92922 1.87006
2 4.07131 6.59601 2.08085
2 4.60541 8.94598 2.44543
2 5.76975 8.67035 3.27702
2 3.34482 6.02446 13.7622
2 3.86397 5.65429 1.0075
2 3.9673 5.54239 12.5522
2 5.04358 4.58029 12.6258
2 4.01285 6.5986 11.5889
2 5.16776 6.72271 10.7503
2 4.95782 4.6897 1.10589
2 5.47499 4.03718 13.9241
2 5.8035 5.07021 2.21868
2 7.17213 4.89799 2.13197
2 5.20103 6.24159 2.92243
2 6.05665 7.23499 3.57848
2 6.98596 3.8413 13.8367
2 7.81433 4.28711 0.942239
2 7.36148 4.26153 12.4716
2 8.58304 4.96439 12.2852
2 6.19909 4.7038 11.7473
2 6.25783 5.78427 10.8351
2 8.97728 5.1578 0.699402
2 9.36097 5.45838 13.406
2 9.31201 6.03368 1.81465
2 9.79673 7.33201 1.52091
2 8.08874 5.90104 2.65179
2 7.59044 7.05084 3.42757
2 10.1146 6.68026 13.1305
2 10.377 7.62405 0.181782
2 8.65604 6.07219 11.353
2 7.5431 6.36282 10.4662
2 9.21209 8.47939 2.13111
2 8.12088 8.38671 3.04718
120
Atoms. Timestep: 20
1 2.37074 2.61535 13.429
1 1.9491 2.97587 0.770443
1 1.60211 3.11037 12.2126
1 0.402349 3.91281 12.4098
1 2.71889 0.980798 11.7439
1 2.32081 13.5716 11.5252
1 3.13928 1.41286 13.1521
1 3.374 0.441537 0.198382
1 1.76756 2.09152 11.1389
1 0.553579 1.68079 10.4079
1 0.782853 3.82078 0.960805
1 13.9596 4.20599 13.8167
1 0.17448 3.37914 2.30922
1 12.6856 3.1819 2.40205
1 2.33677 2.15483 1.94515
1 3.03538 0.858742 1.70953
1 1.12532 2.26131 2.84212
1 0.559132 1.03978 3.39928
1 12.5169 3.99765 13.9752
1 11.8648 3.48639 1.1749
1 12.0411 3.48466 12.6051
1 10.9807 2.5201 12.552
1 13.1724 3.52241 11.6046
1 13.2132 2.46344 10.6033
1 10.8128 2.46898 1.09671
1 10.2891 2.04155 13.7928
1 10.9102 1.51503 2.22326
1 10.549 0.0933657 2.03775
1 12.1695 1.86412 2.94189
1 13.069 0.836739 3.44723
1 9.87322 0.619075 13.5753
1 10.1207 13.6683 0.658005
1 10.32 0.254574 12.1447
1 11.0107 12.9874 11.9065
1 10.9244 1.5015 11.5162
1 12.0431 1.41046 10.5679
1 10.9101 12.4833 0.388294
1 11.3722 12.167 13.0696
1 11.6388 11.9117 1.55937
1 12.8673 11.1042 1.3576
1 11.5262 12.9965 2.53691
1 12.7079 13.385 3.25626
1 12.4738 11.2706 12.8533
1 13.3225 10.8171 13.9308
1 13.0552 11.7064 11.4519
1 0.530359 11.8937 11.3412
1 12.1054 12.817 10.9287
1 12.6695 0.00490042 10.2734
1 0.80223 11.0167 13.7904
1 1.39086 11.5631 12.5495
1 1.23066 11.617 1.10213
1 2.27494 12.5934 1.17623
1 0.124335 11.5539 2.06838
1 14.0335 12.6353 3.03832
1 2.44378 12.6443 12.668
1 2.9416 13.0753 13.9697
1 1.05819 13.198 10.7824
1 0.156993 0.223697 10.2177
1 2.27695 13.5952 2.23353
1 1.14565 13.6959 3.11756
2 8.39772 10.5152 12.6152
2 7.77733 11.0839 13.8311
2 7.54617 10.1258 11.4309
2 6.10364 10.2792 11.5461
2 9.29992 8.50626 11.5636
2 9.61668 7.10017 11.7925
2 9.42521 9.46192 12.6765
2 9.94291 9.05757 13.9573
2 8.09134 8.87171 10.7887
2 7.19152 7.82169 10.2554
2 6.30001 11.2454 13.946
2 5.48999 10.8112 12.8304
2 5.83734 10.9047 1.36749
2 4.63323 10.0772 1.50847
2 8.2384 10.5443 1.13694
2 9.27763 9.56871 1.17348
2 7.10484 10.5077 2.12059
2 7.07446 9.41431 3.08068
2 4.31794 9.92658 13.0546
2 3.88931 9.58767 0.371756
2 3.95153 9.10272 11.9075
2 3.24206 7.84143 12.0723
2 5.15852 9.1866 11.0146
2 5.73747 8.01357 10.4096
2 3.14628 8.37363 0.583015
2 2.92113 7.42725 13.51
2 3.59163 7.94829 1.99866
2 3.91016 6.54364 2.20771
2 4.57191 9.02763 2.5126
2 5.74246 8.654 3.24339
2 3.32081 6.0769 13.7354
2 3.8616 5.64278 1.04834
2 3.95764 5.53195 12.5089
2 5.01631 4.53625 12.5823
2 3.90602 6.57605 11.4281
2 5.12349 6.69616 10.6412
2 4.92826 4.65531 1.11528
2 5.52165 4.12161 13.9263
2 5.74767 4.91363 2.34041
2 7.237 4.74476 2.26436
2 5.19409 6.1424 2.99005
2 6.09467 7.20951 3.49207
2 6.94326 3.8824 13.8434
2 7.7769 4.3016 0.974221
2 7.37877 4.18847 12.4308
2 8.595 4.95683 12.2634
2 6.11751 4.52187 11.6159
2 6.2127 5.64709 10.6815
2 8.95792 5.14086 0.751276
2 9.37171 5.45528 13.4212
2 9.34222 6.0143 1.85022
2 10.0037 7.29678 1.61407
2 8.14048 5.89669 2.72951
2 7.58992 7.06222 3.37307
2 10.1603 6.67087 13.1243
2 10.3699 7.65518 0.185743
2 8.68282 6.02054 11.264
2 7.5359 6.3666 10.4859
2 9.34766 8.55586 2.2403
2 8.19281 8.41143 3.13795
120
Atoms. Timestep: 30
1 2.31001 2.59254 13.4246
1 1.92487 2.92516 0.754472
1 1.59472 3.07811 12.2629
1 0.389082 3.92816 12.3835
1 2.83836 1.0083 11.6093
1 2.48136 13.5798 11.4072
1 3.12349 1.42959 13.1044
1 3.40244 0.491653 0.220766
1 1.78834 2.09026 11.1145
1 0.49487 1.67441 10.3551
1 0.790557 3.81899 1.00892
1 13.944 4.17536 13.8501
1 0.191253 3.53043 2.42878
1 12.7183 3.31068 2.51684
1 2.3989 2.16389 1.95262
1 3.09561 0.86349 1.74829
1 1.18443 2.33639 2.9305
1 0.500425 1.03119 3.34005
1 12.5167 3.93635 13.9094
1 11.9085 3.47125 1.23408
1 12.0324 3.5374 12.6047
1 10.9544 2.49237 12.5379
1 13.1038 3.66192 11.4918
1 13.1821 2.50106 10.4727
1 10.8047 2.39939 1.12583
1 10.3775 1.93848 13.789
1 10.7233 1.48881 2.36402
1 10.4187 0.0672959 2.13228
1 12.0942 1.94979 3.048
1 13.0475 0.874441 3.39734
1 9.89371 0.603032 13.5634
1 10.1101 13.6395 0.670717
1 10.2215 0.22726 12.0539
1 10.9313 12.9501 11.8783
1 10.8081 1.52643 11.3635
1 12.0158 1.38948 10.4497
1 10.9777 12.5081 0.374795
1 11.3916 12.2117 13.0515
1 11.6527 11.9379 1.54866
1 12.8819 11.0888 1.37775
1 11.4612 12.9679 2.68157
1 12.7703 13.4329 3.27844
1 12.4846 11.2652 12.7493
1 13.3002 10.8116 13.9087
1 13.0744 11.5542 11.3485
1 0.537976 11.7484 11.2032
1 12.0949 12.775 10.8781
1 12.6877 0.040481 10.3333
1 0.726343 11.1409 13.7919
1 1.37571 11.5985 12.4948
1 1.25855 11.5214 1.13882
1 2.29716 12.592 1.20785
1 0.158362 11.4137 2.24432
1 14.0644 12.595 3.18717
1 2.4835 12.6392 12.6104
1 2.87437 13.1402 13.9756
1 1.11727 13.1631 10.6882
1 0.163764 0.218938 10.2997
1 2.44512 13.5738 2.33985
1 1.22471 13.6783 3.2395
2 8.36278 10.5197 12.5817
2 7.76015 11.0083 13.8392
2 7.56107 10.2994 11.2843
2 6.07468 10.4293 11.3895
2 9.47811 8.54272 11.4412
2 9.80767 7.0919 11.6514
2 9.44126 9.47351 12.6658
2 9.88581 9.0118 13.961
2 8.14046 8.94214 10.7624
2 7.18971 7.87758 10.3826
2 6.33935 11.2061 13.9196
2 5.50598 10.7716 12.7782
2 5.86868 10.974 1.36865
2 4.65548 10.1085 1.5452
2 8.22275 10.5736 1.17749
2 9.29081 9.50486 1.20892
2 7.14196 10.662 2.26012
2 7.06336 9.50541 3.22121
2 4.33736 9.92604 13.0181
2 3.95036 9.59462 0.336522
2 3.90008 9.11418 11.8321
2 3.157 7.8332 12.0297
2 5.13734 9.23467 10.9504
2 5.72065 7.99863 10.3846
2 3.12195 8.39986 0.633226
2 2.85037 7.4527 13.5164
2 3.43895 7.96312 2.1108
2 3.79445 6.52063 2.3433
2 4.46869 9.05754 2.62851
2 5.78507 8.60981 3.28686
2 3.37528 6.0878 13.726
2 3.86489 5.6505 1.06189
2 3.92182 5.56211 12.4696
2 4.98194 4.5239 12.5653
2 3.81643 6.52299 11.3473
2 5.04301 6.64723 10.4753
2 4.93009 4.61605 1.17059
2 5.53944 4.17802 13.9113
2 5.76137 4.77525 2.46888
2 7.20928 4.64614 2.39007
2 5.13844 6.08707 3.06279
2 6.09724 7.17824 3.37515
2 6.94439 3.90677 13.8749
2 7.79343 4.31244 0.989436
2 7.38285 4.08444 12.4231
2 8.58959 4.98056 12.2339
2 6.11442 4.38871 11.5204
2 6.17977 5.5245 10.5075
2 8.90976 5.19631 0.723371
2 9.32998 5.48594 13.4079
2 9.33956 6.00094 1.91365
2 10.1472 7.29507 1.7282
2 8.19074 5.82619 2.89783
2 7.54816 7.06268 3.3302
2 10.1554 6.68432 13.1284
2 10.3883 7.67291 0.192744
2 8.75842 5.98784 11.1302
2 7.47851 6.43205 10.46
2 9.48014 8.5701 2.3463
2 8.27249 8.42842 3.23187
120
Atoms. Timestep: 40
1 2.22485 2.5403 13.3932
1 1.88493 2.89766 0.778945
1 1.52635 3.03725 12.2292
1 0.367182 3.90545 12.4287
1 2.81801 1.01467 11.5695
1 2.52978 13.544 11.3441
1 3.15528 1.48191 13.0959
1 3.41008 0.506024 0.178486
1 1.69844 2.10118 11.0995
1 0.538761 1.67858 10.3784
1 0.782994 3.78573 1.04558
1 13.9468 4.2086 13.9037
1 0.24911 3.52761 2.46033
1 12.6998 3.35899 2.51125
1 2.37346 2.16067 1.94322
1 3.06381 0.847336 1.68143
1 1.17754 2.34199 2.94841
1 0.569925 1.10089 3.35441
1 12.503 3.9105 13.9815
1 11.9044 3.37802 1.19248
1 11.9691 3.51771 12.5606
1 10.9609 2.48735 12.5073
1 13.0735 3.60716 11.4639
1 13.1426 2.5049 10.4484
1 10.8638 2.37708 1.13473
1 10.4588 1.90747 13.789
1 10.6825 1.54546 2.40555
1 10.3926 0.0216932 2.19185
1 12.0486 2.00218 3.1403
1 13.0418 0.922077 3.40835
1 9.89225 0.564849 13.5683
1 10.1256 13.6004 0.647288
1 10.174 0.23556 12.0497
1 10.911 12.9462 11.8265
1 10.8147 1.52496 11.2973
1 11.9887 1.38697 10.4071
1 11.0467 12.5131 0.370506
1 11.4144 12.1788 12.9868
1 11.7097 12.0018 1.55149
1 12.8839 11.1339 1.36259
1 11.4912 12.9402 2.73041
1 12.7161 13.4388 3.33172
1 12.4936 11.2759 12.7171
1 13.3196 10.8353 13.8176
1 13.0403 11.5649 11.2829
1 0.585294 11.7401 11.2108
1 12.0828 12.769 10.849
1 12.7183 0.0109433 10.367
1 0.729657 11.1928 13.7954
1 1.33399 11.6907 12.5329
1 1.25487 11.5184 1.20225
1 2.31165 12.5586 1.23439
1 0.170286 11.4342 2.29217
1 14.1115 12.5927 3.28009
1 2.41568 12.6924 12.585
1 2.85534 13.1391 13.9401
1 1.1908 13.0968 10.6203
1 0.203372 0.212826 10.3162
1 2.46803 13.523 2.42415
1 1.29116 13.7032 3.29319
2 8.35807 10.4595 12.5343
2 7.73977 10.9452 13.8069
2 7.54945 10.3587 11.2492
2 6.0583 10.5036 11.3324
2 9.54905 8.58039 11.3984
2 9.89518 7.11094 11.5778
2 9.42213 9.44788 12.6273
2 9.83418 8.9743 14.0012
2 8.16347 9.01273 10.7243
2 7.18733 7.87766 10.4056
2 6.2987 11.2042 13.8792
2 5.49317 10.7453 12.7186
2 5.90068 10.9517 1.36611
2 4.6843 10.1219 1.54477
2 8.27482 10.5361 1.20491
2 9.28673 9.52601 1.25797
2 7.14296 10.679 2.28843
2 7.07636 9.51878 3.27693
2 4.37621 9.88572 12.9742
2 3.99454 9.55222 0.366091
2 3.90512 9.11251 11.7961
2 3.20838 7.79348 12.0196
2 5.09338 9.30023 10.8443
2 5.71308 8.08502 10.3511
2 3.09538 8.45813 0.678327
2 2.80984 7.4732 13.5762
2 3.4179 7.97006 2.17357
2 3.75243 6.49059 2.32774
2 4.48889 9.09552 2.70466
2 5.69603 8.65566 3.32564
2 3.39653 6.11779 13.7725
2 3.871 5.66062 1.11271
2 3.9365 5.53688 12.4993
2 5.00535 4.54311 12.5693
2 3.80258 6.50452 11.3245
2 4.94065 6.63524 10.3679
2 4.92514 4.65036 1.19351
2 5.5244 4.14723 13.9513
2 5.69374 4.755 2.51759
2 7.24631 4.59801 2.41238
2 5.10109 6.09146 3.07302
2 6.07226 7.19455 3.35868
2 6.9762 3.86921 13.8571
2 7.80543 4.3306 1.01825
2 7.41959 4.11391 12.3837
2 8.59297 4.98843 12.2215
2 6.1061 4.41857 11.4826
2 6.19546 5.49136 10.4294
2 8.89617 5.25161 0.758195
2 9.27085 5.57428 13.387
2 9.3775 5.97873 1.93398
2 10.1074 7.25948 1.75394
2 8.20731 5.75404 2.98485
2 7.57235 7.02743 3.36389
2 10.1379 6.66702 13.0749
2 10.4333 7.62625 0.209196
2 8.77017 5.97911 11.0421
2 7.53949 6.42305 10.4395
2 9.47577 8.57263 2.42838
2 8.28602 8.3997 3.31304
120
Atoms. Timestep: 50
1 2.21626 2.54907 13.4108
1 1.8836 2.9074 0.73232
1 1.45383 3.04149 12.2725
1 0.253425 3.8413 12.4279
1 2.70766 1.02818 11.6245
1 2.46212 13.5468 11.3836
1 3.16972 1.43804 13.0598
1 3.37116 0.469827 0.128524
1 1.67798 2.09464 11.1388
1 0.489117 1.63919 10.3793
1 0.772506 3.79884 1.03179
1 13.9051 4.22908 13.9135
1 0.18328 3.42806 2.37641
1 12.6916 3.25811 2.47702
1 2.31803 2.10986 1.88977
1 2.96529 0.797601 1.62611
1 1.20415 2.31379 2.87506
1 0.569205 1.09937 3.47321
1 12.4783 3.9402 13.9514
1 11.9326 3.34296 1.1831
1 11.9788 3.48737 12.584
1 10.9518 2.46725 12.5183
1 13.0792 3.4911 11.6108
1 13.1817 2.41603 10.5183
1 10.8959 2.36966 1.07205
1 10.4155 1.90091 13.7635
1 10.7912 1.53545 2.34598
1 10.4691 0.0530498 2.14961
1 12.0772 2.02184 3.1499
1 13.0776 0.920695 3.50277
1 9.89564 0.567972 13.5794
1 10.1527 13.5947 0.665549
1 10.2648 0.229183 12.0638
1 10.9318 12.9337 11.8078
1 10.8469 1.50719 11.4042
1 12.0335 1.36706 10.4502
1 11.0298 12.5035 0.325661
1 11.3605 12.142 12.9885
1 11.7708 12.0267 1.48817
1 12.9564 11.2158 1.34232
1 11.5441 12.9678 2.64077
1 12.7545 13.4228 3.45324
1 12.4892 11.2653 12.6805
1 13.3402 10.8758 13.8667
1 13.0875 11.6754 11.3381
1 0.551751 11.8679 11.2938
1 12.114 12.8012 10.8374
1 12.726 0.0158093 10.3153
1 0.773492 11.149 13.8079
1 1.32909 11.7523 12.6021
1 1.25221 11.6098 1.14636
1 2.33497 12.5585 1.23696
1 0.169496 11.5717 2.19241
1 14.0786 12.6742 3.26752
1 2.34948 12.7212 12.6749
1 2.907 13.1244 13.9447
1 1.20846 13.1005 10.5939
1 0.221991 0.157006 10.2449
1 2.42467 13.574 2.34422
1 1.2368 13.7274 3.30405
2 8.35063 10.4139 12.5879
2 7.74744 10.9311 13.795
2 7.55006 10.2752 11.2864
2 6.05642 10.4677 11.3562
2 9.48061 8.58472 11.4087
2 9.82913 7.14357 11.5987
2 9.39951 9.41087 12.6874
2 9.88251 8.94075 14.0029
2 8.14847 8.96622 10.6688
2 7.18789 7.8922 10.3278
2 6.31424 11.2144 13.8428
2 5.45001 10.7878 12.737
2 5.90092 10.8703 1.33552
2 4.70491 10.065 1.52375
2 8.24111 10.5392 1.1613
2 9.33319 9.52596 1.27137
2 7.16042 10.5256 2.18846
2 7.05251 9.44192 3.2461
2 4.35842 9.86707 13.0219
2 3.98075 9.54127 0.364272
2 3.93131 9.08915 11.8341
2 3.30276 7.78693 12.0933
2 5.058 9.34556 10.7618
2 5.69542 8.06689 10.2562
2 3.08843 8.42872 0.694473
2 2.85571 7.47361 13.612
2 3.48519 8.00247 2.11951
2 3.84169 6.57176 2.31353
2 4.50331 9.13557 2.63004
2 5.72732 8.69694 3.42033
2 3.3631 6.11471 13.8058
2 3.84085 5.66194 1.08422
2 3.97214 5.54218 12.5506
2 5.06324 4.55568 12.6116
2 3.8412 6.52836 11.3976
2 4.99883 6.68467 10.3679
2 4.91755 4.66521 1.1811
2 5.52666 4.06761 13.9519
2 5.72805 4.82995 2.44975
2 7.21531 4.63149 2.385
2 5.09639 6.14207 3.04448
2 6.051 7.21546 3.44653
2 6.98285 3.84172 13.877
2 7.80508 4.31413 0.99249
2 7.39242 4.21417 12.368
2 8.60761 5.03636 12.2006
2 6.15509 4.54602 11.5601
2 6.21266 5.63904 10.471
2 8.90991 5.19252 0.73393
2 9.24662 5.59727 13.3915
2 9.38799 5.94144 1.9557
2 9.98286 7.27041 1.68784
2 8.221 5.76171 2.92896
2 7.55104 6.99624 3.49226
2 10.167 6.68569 13.082
2 10.4209 7.60756 0.178326
2 8.81191 5.9796 11.1
2 7.54077 6.4208 10.3599
2 9.36891 8.51177 2.41105
2 8.19795 8.38819 3.33806
120
Atoms. Timestep: 60
1 2.28884 2.60792 13.3666
1 1.90702 2.94297 0.713
1 1.46848 3.04411 12.2751
1 0.275386 3.7783 12.4929
1 2.61366 1.00342 11.7144
1 2.31848 13.6337 11.5509
1 3.06255 1.43381 13.072
1 3.35466 0.46785 0.185982
1 1.63154 2.01084 11.1814
1 0.482001 1.62869 10.4088
1 0.713929 3.82096 0.955421
1 13.8898 4.24671 13.825
1 0.156564 3.29257 2.26915
1 12.7295 3.11239 2.35291
1 2.25396 2.05732 1.80013
1 2.87329 0.819835 1.5547
1 1.08803 2.23207 2.82856
1 0.608124 1.08689 3.57435
1 12.4271 3.97626 13.9462
1 11.9127 3.39574 1.13846
1 11.9756 3.43897 12.6583
1 10.9199 2.48033 12.5737
1 13.0891 3.34496 11.7066
1 13.1748 2.31376 10.7122
1 10.8582 2.34901 1.05204
1 10.3111 1.95407 13.7936
1 10.9637 1.46283 2.21086
1 10.6508 0.103203 2.03574
1 12.1793 1.89239 3.0901
1 13.0787 0.899058 3.70572
1 9.90794 0.556275 13.5568
1 10.1751 13.6478 0.650432
1 10.3709 0.213887 12.1235
1 10.9941 12.9584 11.8343
1 10.9688 1.42025 11.5016
1 12.0848 1.34772 10.5825
1 10.9684 12.4611 0.323196
1 11.3143 12.0728 12.9547
1 11.7931 12.052 1.4539
1 12.9836 11.3241 1.27586
1 11.6312 13.0803 2.56093
1 12.7432 13.4196 3.44984
1 12.5138 11.2553 12.7624
1 13.3732 10.8764 13.9179
1 13.1045 11.8125 11.4804
1 0.534752 12.0137 11.4392
1 12.1829 12.8125 10.8667
1 12.7073 0.0101391 10.2194
1 0.805728 11.1199 13.8063
1 1.32197 11.7164 12.6108
1 1.26969 11.6831 1.10836
1 2.35554 12.5982 1.18566
1 0.149641 11.7673 2.07363
1 14.0823 12.7499 3.13394
1 2.38366 12.7099 12.7013
1 2.96212 13.081 13.9692
1 1.10858 13.1512 10.655
1 0.219803 0.182974 10.0679
1 2.28118 13.6415 2.24265
1 1.1772 13.7316 3.23195
2 8.31197 10.3819 12.6192
2 7.76652 10.9699 13.8265
2 7.51687 10.1148 11.3953
2 6.02736 10.3503 11.4232
2 9.32182 8.50539 11.5213
2 9.70114 7.12238 11.6965
2 9.38873 9.38754 12.7104
2 9.95947 9.0076 13.993
2 8.10299 8.91932 10.6695
2 7.20687 7.88084 10.122
2 6.2972 11.212 13.9117
2 5.4701 10.8255 12.7605
2 5.91377 10.7782 1.2706
2 4.71521 10.0267 1.46351
2 8.25906 10.4468 1.14168
2 9.32804 9.51914 1.22977
2 7.09423 10.3564 2.04435
2 7.0388 9.36148 3.13034
2 4.31862 9.94112 13.019
2 3.93306 9.59245 0.346596
2 3.99093 9.09488 11.9176
2 3.36336 7.79919 12.193
2 5.06668 9.26874 10.7968
2 5.67668 8.08384 10.1568
2 3.12547 8.4092 0.646902
2 2.93775 7.43562 13.5724
2 3.62145 8.04044 2.03778
2 3.94915 6.64235 2.21839
2 4.56053 9.05551 2.60961
2 5.72109 8.68877 3.41681
2 3.34071 6.03794 13.79
2 3.84369 5.66444 1.10005
2 3.9944 5.5667 12.5578
2 5.05878 4.5995 12.6288
2 3.98972 6.60585 11.4845
2 5.09744 6.71511 10.5392
2 4.94096 4.61134 1.16186
2 5.49681 4.04551 13.9401
2 5.76012 4.98362 2.33741
2 7.1947 4.74494 2.28158
2 5.20238 6.23157 3.01089
2 6.05694 7.2114 3.6538
2 6.97833 3.84734 13.8297
2 7.79159 4.2594 0.983808
2 7.39111 4.30916 12.4444
2 8.58143 5.06105 12.2518
2 6.18568 4.74256 11.6578
2 6.24215 5.78171 10.6518
2 8.9844 5.10817 0.726031
2 9.32553 5.51844 13.3852
2 9.31793 5.94636 1.87474
2 9.86623 7.25615 1.61043
2 8.09813 5.79555 2.85853
2 7.56995 6.99318 3.60142
2 10.1581 6.68683 13.1138
2 10.3649 7.62306 0.216028
2 8.74934 6.09396 11.1144
2 7.57972 6.45324 10.3249
2 9.25687 8.46141 2.29138
2 8.1253 8.35079 3.25623
120
Atoms. Timestep: 70
1 2.33497 2.69552 13.3926
1 1.886 2.99517 0.662771
1 1.57588 3.05178 12.2137
1 0.314322 3.75169 12.4282
1 2.52425 0.966829 11.8122
1 2.14903 13.6175 11.6317
1 3.01558 1.42767 13.1396
1 3.31959 0.549917 0.176959
1 1.62685 2.00147 11.2494
1 0.442882 1.64829 10.432
1 0.734993 3.80006 0.917313
1 13.891 4.216 13.8367
1 0.147897 3.18936 2.13014
1 12.7803 2.96631 2.24452
1 2.12039 2.11877 1.79238
1 2.80127 0.859484 1.57109
1 1.05353 2.19071 2.75574
1 0.584427 1.04889 3.61305
1 12.4142 3.9983 13.9513
1 11.8549 3.41801 1.16255
1 11.9647 3.40598 12.6487
1 10.8959 2.45858 12.5642
1 13.1181 3.29701 11.8052
1 13.1943 2.21589 10.8521
1 10.8431 2.38507 1.10228
1 10.2177 1.99702 13.7999
1 11.1423 1.43121 2.11596
1 10.8232 0.0941915 1.89112
1 12.2337 1.80516 2.98428
1 13.0456 0.847298 3.8332
1 9.9333 0.561976 13.5486
1 10.2036 13.6374 0.588138
1 10.4458 0.207038 12.1681
1 11.0686 12.9097 11.8957
1 11.0176 1.38266 11.6245
1 12.1307 1.29257 10.7024
1 10.9216 12.4059 0.328924
1 11.3324 12.0541 13.0315
1 11.7342 12.1027 1.48134
1 12.9656 11.4078 1.26255
1 11.6657 13.1025 2.48363
1 12.8059 13.4315 3.36451
1 12.5472 11.2602 12.8066
1 13.3502 10.8847 13.9036
1 13.1224 11.8901 11.6329
1 0.485255 12.098 11.5175
1 12.1793 12.8374 10.9306
1 12.6591 0.00100432 10.1503
1 0.839887 11.1352 13.8155
1 1.39874 11.6621 12.6095
1 1.26985 11.666 1.12459
1 2.31136 12.6224 1.20024
1 0.137056 11.8282 1.9452
1 14.075 12.8284 2.99327
1 2.456 12.6868 12.6813
1 3.00905 13.0999 13.9646
1 1.03988 13.2726 10.7735
1 0.215935 0.207549 9.96995
1 2.24247 13.6787 2.15826
1 1.15266 13.758 3.11908
2 8.29062 10.376 12.629
2 7.78268 10.9796 13.8221
2 7.41417 9.99364 11.4905
2 6.05321 10.2183 11.5355
2 9.18746 8.44823 11.6402
2 9.55468 7.1156 11.8166
2 9.36724 9.40174 12.7004
2 9.98421 9.04914 13.9809
2 8.04446 8.87645 10.7289
2 7.2419 7.94019 9.91465
2 6.30815 11.2003 13.9091
2 5.46595 10.8215 12.7806
2 5.91469 10.6964 1.27945
2 4.69362 10.0128 1.47937
2 8.23105 10.425 1.1367
2 9.29046 9.48179 1.21811
2 7.05476 10.2602 1.95913
2 7.01715 9.27788 2.99611
2 4.29414 10.0077 13.0026
2 3.90721 9.65802 0.329262
2 4.0477 9.08815 11.9065
2 3.46363 7.82223 12.1539
2 5.14698 9.2281 10.9387
2 5.62631 8.07209 10.1431
2 3.18829 8.41761 0.590245
2 2.99527 7.45116 13.5416
2 3.72512 7.96717 1.92919
2 4.09404 6.62194 2.15924
2 4.58649 9.01552 2.55302
2 5.75515 8.64989 3.38851
2 3.3345 6.03626 13.8068
2 3.89526 5.63388 1.08214
2 3.98811 5.57074 12.5487
2 5.04586 4.64845 12.5944
2 4.08093 6.66529 11.6125
2 5.21506 6.78684 10.7057
2 4.90332 4.6016 1.17028
2 5.4904 4.07445 13.9245
2 5.80974 5.10026 2.23515
2 7.16814 4.88557 2.16278
2 5.24304 6.25893 2.96858
2 6.05305 7.20527 3.8029
2 6.97114 3.88683 13.8209
2 7.79633 4.23047 0.944409
2 7.36169 4.38235 12.4659
2 8.59104 5.1045 12.2617
2 6.22618 4.81296 11.8032
2 6.28502 5.88183 10.8277
2 8.98599 5.07015 0.734552
2 9.41749 5.41593 13.4128
2 9.15184 5.98612 1.82436
2 9.79956 7.23634 1.59009
2 8.08368 5.85744 2.80477
2 7.58148 6.99576 3.60222
2 10.1127 6.66698 13.1416
2 10.3005 7.60968 0.226173
2 8.69242 6.09084 11.1995
2 7.53006 6.46138 10.35
2 9.22542 8.39433 2.16065
2 8.12031 8.33495 3.09885
120
Atoms. Timestep: 80
1 2.33636 2.69122 13.3694
1 1.88616 3.00169 0.712396
1 1.58181 3.17749 12.2114
1 0.358559 3.85589 12.4217
1 2.45121 0.999957 11.8537
1 2.16651 13.6577 11.6537
1 3.0433 1.47154 13.1093
1 3.27933 0.561802 0.22659
1 1.67149 2.00925 11.198
1 0.497186 1.6639 10.4565
1 0.691756 3.80645 0.916605
1 13.9044 4.17515 13.7977
1 0.136882 3.1312 2.11331
1 12.7726 2.95812 2.20887
1 2.12439 2.12714 1.78726
1 2.81482 0.954189 1.57148
1 1.05096 2.24411 2.80326
1 0.58081 1.05955 3.51067
1 12.4515 3.95739 13.9498
1 11.9124 3.44123 1.18535
1 11.9865 3.43294 12.6451
1 10.9096 2.46218 12.5717
1 13.1459 3.26022 11.7826
1 13.2042 2.21997 10.8766
1 10.7902 2.40366 1.07306
1 10.2514 1.97815 13.8024
1 11.1344 1.39846 2.0579
1 10.8718 0.0647893 1.82816
1 12.2362 1.80623 2.97887
1 13.0657 0.862848 3.68716
1 9.948 0.53538 13.5276
1 10.215 13.6464 0.615626
1 10.4097 0.138973 12.2111
1 11.0451 12.9309 11.9796
1 11.0042 1.34401 11.6166
1 12.1221 1.2768 10.747
1 10.9267 12.3924 0.364927
1 11.3652 12.0835 13.0635
1 11.7224 11.9884 1.4656
1 12.9251 11.3429 1.26056
1 11.6593 13.0501 2.52085
1 12.8277 13.4093 3.26716
1 12.5403 11.2795 12.8277
1 13.3594 10.9136 13.9327
1 13.1022 11.9051 11.6203
1 0.503869 12.089 11.5171
1 12.1629 12.7932 10.9544
1 12.6183 -0.0191546 10.2104
1 0.813408 11.1024 13.8253
1 1.39888 11.6401 12.602
1 1.30217 11.6363 1.11402
1 2.35449 12.6359 1.18458
1 0.115243 11.7968 1.96162
1 14.0634 12.8153 2.89189
1 2.48393 12.6809 12.6751
1 2.96614 13.1486 13.971
1 1.01043 13.2469 10.8243
1 0.160275 0.228795 10.0976
1 2.26601 13.7277 2.18654
1 1.16699 13.7541 3.07244
2 8.3043 10.4018 12.6274
2 7.73191 10.9757 13.8104
2 7.45424 9.99461 11.5407
2 6.07564 10.1654 11.6284
2 9.13758 8.47187 11.655
2 9.46651 7.10062 11.8731
2 9.37569 9.41623 12.7228
2 9.91188 8.9674 13.9676
2 8.01223 8.86285 10.7677
2 7.22063 7.92058 9.91986
2 6.2912 11.1777 13.9
2 5.49734 10.8141 12.7848
2 5.87002 10.7427 1.27002
2 4.65817 10.0657 1.49313
2 8.20699 10.452 1.10531
2 9.29085 9.49298 1.17826
2 7.11359 10.2757 1.99038
2 7.034 9.20859 2.91787
2 4.32591 9.96068 13.0127
2 3.8955 9.62345 0.328173
2 4.03164 9.11919 11.8788
2 3.4669 7.86706 12.1532
2 5.19418 9.2265 10.9798
2 5.69447 8.11418 10.2331
2 3.25046 8.37967 0.607766
2 3.01241 7.51518 13.5218
2 3.77622 7.92513 1.89927
2 4.10395 6.58777 2.09173
2 4.57554 8.97523 2.52324
2 5.76924 8.64992 3.3488
2 3.36639 6.10088 13.772
2 3.88341 5.65168 1.05162
2 3.99136 5.58851 12.5554
2 5.04153 4.60824 12.6491
2 4.10781 6.69268 11.6152
2 5.22552 6.82172 10.7946
2 4.94662 4.61447 1.11965
2 5.5081 4.0945 13.9295
2 5.80187 5.08326 2.21172
2 7.205 4.93213 2.11875
2 5.23081 6.18406 3.01561
2 6.04965 7.17871 3.69909
2 6.96032 3.91053 13.8274
2 7.75606 4.27617 0.943753
2 7.40995 4.35714 12.4918
2 8.59925 5.0222 12.2955
2 6.20918 4.84305 11.7953
2 6.2689 5.89927 10.8952
2 8.89262 5.12607 0.715934
2 9.35988 5.42476 13.4254
2 9.12612 6.01234 1.78405
2 9.81262 7.20753 1.57724
2 8.08636 5.88224 2.81969
2 7.60528 7.04593 3.50061
2 10.0693 6.66958 13.1501
2 10.2765 7.56762 0.210057
2 8.6921 6.08151 11.2307
2 7.52391 6.43024 10.4358
2 9.21147 8.41722 2.15531
2 8.12 8.30003 3.03737
120
Atoms. Timestep: 90
1 2.28604 2.69639 13.3855
1 1.88288 3.03547 0.670598
1 1.60116 3.22686 12.1777
1 0.341459 3.94185 12.3965
1 2.5391 1.07126 11.8161
1 2.27225 13.6613 11.5828
1 3.07793 1.51131 13.1299
1 3.27522 0.56875 0.161986
1 1.69685 2.15032 11.1554
1 0.483416 1.66166 10.4258
1 0.721415 3.80361 0.921327
1 13.8904 4.21277 13.832
1 0.152199 3.24727 2.19048
1 12.7033 3.05735 2.30729
1 2.23744 2.1983 1.85385
1 2.90607 0.914037 1.61023
1 1.1159 2.28717 2.86141
1 0.57325 1.06958 3.38982
1 12.4638 3.93539 13.9037
1 11.8602 3.40247 1.10024
1 11.9965 3.42805 12.6482
1 10.9429 2.45669 12.5631
1 13.1273 3.41158 11.7368
1 13.217 2.26548 10.7776
1 10.8001 2.40012 1.04215
1 10.3325 1.9395 13.76
1 11.0233 1.44832 2.1485
1 10.7652 0.0322085 1.92493
1 12.1686 1.87388 2.96794
1 13.1049 0.84273 3.39603
1 9.92941 0.529193 13.6178
1 10.2016 13.5748 0.638392
1 10.3129 0.191787 12.1581
1 11.0027 12.9055 11.9312
1 10.9309 1.40132 11.5641
1 12.0903 1.27345 10.6813
1 10.9586 12.4076 0.371311
1 11.359 12.0756 13.0784
1 11.6977 11.8685 1.56569
1 12.9695 11.1479 1.31552
1 11.5914 12.9701 2.54532
1 12.7868 13.41 3.24099
1 12.5235 11.3029 12.8399
1 13.3742 10.8895 13.9126
1 13.0824 11.7523 11.5385
1 0.510368 11.9741 11.4472
1 12.0907 12.7813 10.9524
1 12.6563 -0.0460591 10.3643
1 0.835219 11.084 13.7983
1 1.35542 11.6672 12.602
1 1.32221 11.6225 1.12763
1 2.36752 12.6234 1.20322
1 0.191228 11.6459 2.00617
1 14.0961 12.7784 2.9522
1 2.42266 12.7125 12.7136
1 2.9337 13.1657 13.9764
1 1.06201 13.2054 10.7956
1 0.144861 0.187445 10.353
1 2.36748 13.6677 2.22037
1 1.17928 13.7797 3.08939
2 8.33865 10.4602 12.6271
2 7.75645 10.9645 13.8252
2 7.52869 10.0859 11.4756
2 6.10237 10.2455 11.5859
2 9.22204 8.46676 11.6054
2 9.52533 7.11161 11.8246
2 9.38978 9.39022 12.696
2 9.82812 8.95289 13.9876