  LAMMPS description
 
     240   atoms
     360   bonds
       0   angles
       0   dihedrals
 
       1   atom types
       1   bond types
       0   angle types
       0   dihedral types
 
       0   14.000000     xlo xhi
       0   14.000000     ylo yhi
       0   14.000000     zlo zhi
  0.0000000      0.0000000      0.0000000     xy xz yz

  Masses

       1   12.010000

   Atoms

       1       1       1    0.000000    2.340000    2.600000   -0.594000
       2       1       1    0.000000    1.932411    2.933365    0.705451
       3       1       1    0.000000    1.580368    3.083897   -1.730590
       4       1       1    0.000000    0.399467    3.822030   -1.481692
       5       1       1    0.000000    2.449423    0.973509   -2.084718
       6       1       1    0.000000    2.113944   -0.374888   -2.286676
       7       1       1    0.000000    3.086831    1.378125   -0.849817
       8       1       1    0.000000    3.336869    0.449838    0.188256
       9       1       1    0.000000    1.647797    2.015067   -2.727119
      10       1       1    0.000000    0.534648    1.640854   -3.528780
      11       1       1    0.000000    0.772569    3.781382    0.928341
      12       1       1    0.000000   -0.011861    4.296502   -0.140594
      13       1       1    0.000000    0.205590    3.098199    2.075599
      14       1       1    0.000000   -1.191131    2.932479    2.155623
      15       1       1    0.000000    2.190146    2.036538    1.792432
      16       1       1    0.000000    2.757570    0.779314    1.492653
      17       1       1    0.000000    1.084115    2.154037    2.751463
      18       1       1    0.000000    0.537181    1.032677    3.447316
      19       1       1    0.000000   -1.479049    4.079470   -0.048174
      20       1       1    0.000000   -2.037580    3.450969    1.104819
      21       1       1    0.000000   -1.943940    3.505906   -1.329556
      22       1       1    0.000000   -2.986758    2.556221   -1.420824
      23       1       1    0.000000   -0.777123    3.286697   -2.133266
      24       1       1    0.000000   -0.714939    2.260819   -3.105707
      25       1       1    0.000000   -3.095945    2.426679    1.014125
      26       1       1    0.000000   -3.653719    2.025808   -0.229680
      27       1       1    0.000000   -2.847967    1.455370    2.036971
      28       1       1    0.000000   -3.183467    0.107009    1.834931
      29       1       1    0.000000   -1.743668    1.823876    2.914857
      30       1       1    0.000000   -0.940122    0.861433    3.595160
      31       1       1    0.000000   -4.070896    0.630736   -0.438029
      32       1       1    0.000000   -3.820995   -0.297496    0.600034
      33       1       1    0.000000   -3.491481    0.301169   -1.742379
      34       1       1    0.000000   -2.924158   -0.956061   -2.042290
      35       1       1    0.000000   -2.879017    1.464294   -2.351209
      36       1       1    0.000000   -1.797381    1.346676   -3.247208
      37       1       1    0.000000   -3.074331   -1.519176    0.343934
      38       1       1    0.000000   -2.666583   -1.852912   -0.955355
      39       1       1    0.000000   -2.314461   -2.003263    1.480564
      40       1       1    0.000000   -1.133555   -2.741505    1.231874
      41       1       1    0.000000   -2.381787   -0.934560    2.477249
      42       1       1    0.000000   -1.268645   -0.560435    3.278976
      43       1       1    0.000000   -1.506633   -2.700962   -1.178069
      44       1       1    0.000000   -0.722163   -3.216054   -0.109154
      45       1       1    0.000000   -0.939588   -2.017723   -2.325292
      46       1       1    0.000000    0.457137   -1.852032   -2.405315
      47       1       1    0.000000   -1.818078   -1.073571   -3.001219
      48       1       1    0.000000   -1.271165    0.047764   -3.697082
      49       1       1    0.000000    0.745045   -2.999034   -0.201554
      50       1       1    0.000000    1.303609   -2.370517   -1.354536
      51       1       1    0.000000    1.209945   -2.425442    1.079818
      52       1       1    0.000000    2.252788   -1.475762    1.171085
      53       1       1    0.000000    0.043093   -2.206277    1.883518
      54       1       1    0.000000   -0.019041   -1.180395    2.855956
      55       1       1    0.000000    2.361980   -1.346219   -1.263844
      56       1       1    0.000000    2.919772   -0.945305   -0.020050
      57       1       1    0.000000    1.009665   -0.743425   -3.164548
      58       1       1    0.000000    0.206134    0.218988   -3.844909
      59       1       1    0.000000    2.145082   -0.383830    2.101480
      60       1       1    0.000000    1.063413   -0.266236    2.997450
      61       2       1    0.000000    8.303722   10.452054   -1.350844
      62       2       1    0.000000    7.746103   11.077979   -0.196041
      63       2       1    0.000000    7.456550    9.936166   -2.402128
      64       2       1    0.000000    6.059746   10.101562   -2.319857
      65       2       1    0.000000    9.113071    8.458914   -2.287710
      66       2       1    0.000000    9.446399    7.109765   -2.086877
      67       2       1    0.000000    9.362310    9.427880   -1.263013
      68       2       1    0.000000    9.920885    9.024513   -0.020288
      69       2       1    0.000000    8.008520    8.828998   -3.164760
      70       2       1    0.000000    7.203705    7.867862   -3.845728
      71       2       1    0.000000    6.279325   11.295340   -0.102355
      72       2       1    0.000000    5.493784   10.783323   -1.171543
      73       2       1    0.000000    5.869453   10.817734    1.237515
      74       2       1    0.000000    4.687821   10.080969    1.486594
      75       2       1    0.000000    8.212347   10.502949    1.084205
      76       2       1    0.000000    9.254682    9.552414    1.172563
      77       2       1    0.000000    7.046289   10.283012    1.889067
      78       2       1    0.000000    6.984292    9.256025    2.860458
      79       2       1    0.000000    4.333441    9.935438   -0.949256
      80       2       1    0.000000    3.926701    9.599509    0.349816
      81       2       1    0.000000    4.073927    9.041333   -2.038224
      82       2       1    0.000000    3.507259    7.783767   -1.739214
      83       2       1    0.000000    5.180106    9.159777   -2.997083
      84       2       1    0.000000    5.726613    8.039466   -3.694880
      85       2       1    0.000000    3.180189    8.377595    0.604502
      86       2       1    0.000000    2.928807    7.451545   -0.435037
      87       2       1    0.000000    3.819512    7.970473    1.837430
      88       2       1    0.000000    4.152793    6.621336    2.038313
      89       2       1    0.000000    4.621451    9.010736    2.481936
      90       2       1    0.000000    5.734508    8.635486    3.283459
      91       2       1    0.000000    3.345059    6.055817   -0.229095
      92       2       1    0.000000    3.903555    5.652393    1.013624
      93       2       1    0.000000    4.011282    5.527984   -1.421916
      94       2       1    0.000000    5.053574    4.577433   -1.333542
      95       2       1    0.000000    4.119191    6.621681   -2.350399
      96       2       1    0.000000    5.200206    6.740312   -3.246657
      97       2       1    0.000000    4.962088    4.628166    1.101465
      98       2       1    0.000000    5.519736    4.002277   -0.053335
      99       2       1    0.000000    5.809257    5.144126    2.152692
     100       2       1    0.000000    7.206049    4.978777    2.070351
     101       2       1    0.000000    5.257308    6.251277    2.915370
     102       2       1    0.000000    6.062122    7.212415    3.596339
     103       2       1    0.000000    6.986509    3.784865   -0.147051
     104       2       1    0.000000    7.772045    4.296909    0.922121
     105       2       1    0.000000    7.396375    4.262525   -1.486909
     106       2       1    0.000000    8.578013    4.999292   -1.736004
     107       2       1    0.000000    6.219571    4.797318   -2.138432
     108       2       1    0.000000    6.281553    5.824336   -3.109769
     109       2       1    0.000000    8.932381    5.144792    0.699845
     110       2       1    0.000000    9.339128    5.480738   -0.599221
     111       2       1    0.000000    9.191866    6.038943    1.788769
     112       2       1    0.000000    9.758491    7.296512    1.489745
     113       2       1    0.000000    8.085674    5.920550    2.747570
     114       2       1    0.000000    7.539203    7.040835    3.445399
     115       2       1    0.000000   10.085650    6.702648   -0.853912
     116       2       1    0.000000   10.337014    7.628722    0.185616
     117       2       1    0.000000    8.644435    6.069516   -2.731372
     118       2       1    0.000000    7.531332    6.444836   -3.532792
     119       2       1    0.000000    9.146622    8.458617    2.100945
     120       2       1    0.000000    8.065610    8.339989    2.997220
     121       3       1    0.000000    9.329822    2.608571    6.400016
     122       3       1    0.000000    8.920769    2.947660    7.697396
     123       3       1    0.000000    8.571144    3.085373    5.260025
     124       3       1    0.000000    7.385822    3.817063    5.505353
     125       3       1    0.000000    9.449206    0.977316    4.915655
     126       3       1    0.000000    9.120722   -0.373589    4.719432
     127       3       1    0.000000   10.082077    1.389301    6.150136
     128       3       1    0.000000   10.337397    0.467716    7.192804
     129       3       1    0.000000    8.644161    2.013030    4.267071
     130       3       1    0.000000    7.533796    1.631132    3.464212
     131       3       1    0.000000    7.757002    3.791266    7.914827
     132       3       1    0.000000    6.971650    4.297101    6.842783
     133       3       1    0.000000    7.191764    3.109457    9.063466
     134       3       1    0.000000    5.795291    2.940866    9.145644
     135       3       1    0.000000    9.183365    2.058070    8.789770
     136       3       1    0.000000    9.754494    0.801912    8.494551
     137       3       1    0.000000    8.074511    2.173595    9.745380
     138       3       1    0.000000    7.531303    1.053338   10.445515
     139       3       1    0.000000    5.506243    4.072022    6.933974
     140       3       1    0.000000    4.949263    3.446885    8.089312
     141       3       1    0.000000    5.042996    3.493486    5.654536
     142       3       1    0.000000    4.002683    2.540507    5.566272
     143       3       1    0.000000    6.212283    3.274867    4.853585
     144       3       1    0.000000    6.280503    2.247964    3.882926
     145       3       1    0.000000    3.894006    2.418979    8.001740
     146       3       1    0.000000    3.335784    2.012325    6.759426
     147       3       1    0.000000    4.145261    1.454478    9.030564
     148       3       1    0.000000    3.816795    0.103531    8.834587
     149       3       1    0.000000    5.246899    1.832333    9.908390
     150       3       1    0.000000    6.054513    0.876097   10.593461
     151       3       1    0.000000    2.928528    0.613043    6.557350
     152       3       1    0.000000    3.183785   -0.308471    7.600139
     153       3       1    0.000000    3.511515    0.278918    5.255665
     154       3       1    0.000000    4.082642   -0.977312    4.960610
     155       3       1    0.000000    4.121898    1.441832    4.645132
     156       3       1    0.000000    5.203983    1.325841    3.749453
     157       3       1    0.000000    3.936140   -1.527745    7.350516
     158       3       1    0.000000    4.345220   -1.866807    6.053118
     159       3       1    0.000000    4.694882   -2.004386    8.490591
     160       3       1    0.000000    5.880321   -2.736004    8.245434
     161       3       1    0.000000    4.621889   -0.931970    9.483467
     162       3       1    0.000000    5.732174   -0.550150   10.286546
     163       3       1    0.000000    5.509087   -2.710269    5.835755
     164       3       1    0.000000    6.294471   -3.215846    6.907900
     165       3       1    0.000000    6.074173   -2.028641    4.686875
     166       3       1    0.000000    7.470634   -1.860010    4.604490
     167       3       1    0.000000    5.191416   -1.092770    4.004905
     168       3       1    0.000000    5.734574    0.027668    3.304941
     169       3       1    0.000000    7.759803   -2.990803    6.816360
     170       3       1    0.000000    8.316756   -2.366106    5.660753
     171       3       1    0.000000    8.222868   -2.412202    8.095825
     172       3       1    0.000000    9.263203   -1.459336    8.183781
     173       3       1    0.000000    7.053853   -2.193965    8.897288
     174       3       1    0.000000    6.985592   -1.167016    9.868139
     175       3       1    0.000000    9.372173   -1.338278    5.748111
     176       3       1    0.000000    9.930181   -0.931538    6.990516
     177       3       1    0.000000    8.018959   -0.751384    3.841779
     178       3       1    0.000000    7.211373    0.205048    3.156967
     179       3       1    0.000000    9.144016   -0.360867    9.105213
     180       3       1    0.000000    8.062078   -0.244871   10.001122
     181       4       1    0.000000    1.315687   10.442478    5.640524
     182       4       1    0.000000    0.765269   11.067473    6.799085
     183       4       1    0.000000    0.459513    9.933562    4.593483
     184       4       1    0.000000   -0.936032   10.106789    4.684166
     185       4       1    0.000000    2.105033    8.445020    4.701918
     186       4       1    0.000000    2.431069    7.093949    4.899671
     187       4       1    0.000000    2.371436    9.414023    5.723052
     188       4       1    0.000000    2.935326    9.006698    6.962822
     189       4       1    0.000000    1.000330    8.822491    3.829106
     190       4       1    0.000000    0.187017    7.866480    3.151746
     191       4       1    0.000000   -0.698558   11.297411    6.901262
     192       4       1    0.000000   -1.492087   10.790806    5.835915
     193       4       1    0.000000   -1.104819   10.822940    8.243483
     194       4       1    0.000000   -2.290713   10.094225    8.499092
     195       4       1    0.000000    1.234112   10.488672    8.075934
     196       4       1    0.000000    2.273781    9.534610    8.158476
     197       4       1    0.000000    0.072408   10.279694    8.888892
     198       4       1    0.000000    0.009234    9.253891    9.861109
     199       4       1    0.000000   -2.654699    9.948808    6.063818
     200       4       1    0.000000   -3.057086    9.615339    7.364841
     201       4       1    0.000000   -2.929536    9.059150    4.973973
     202       4       1    0.000000   -3.503803    7.805225    5.275087
     203       4       1    0.000000   -1.825435    9.171498    4.011173
     204       4       1    0.000000   -1.287390    8.047464    3.313238
     205       4       1    0.000000   -3.808477    8.397066    7.621436
     206       4       1    0.000000   -4.075620    7.473797    6.583134
     207       4       1    0.000000   -3.165336    7.986656    8.850818
     208       4       1    0.000000   -2.839152    6.635603    9.048534
     209       4       1    0.000000   -2.358129    9.022845    9.495175
     210       4       1    0.000000   -1.242366    8.639835   10.290345
     211       4       1    0.000000   -3.669204    6.073978    6.787607
     212       4       1    0.000000   -3.105355    5.666639    8.027346
     213       4       1    0.000000   -3.007687    5.546040    5.592004
     214       4       1    0.000000   -1.968116    4.591911    5.674499
     215       4       1    0.000000   -2.896611    6.639929    4.664799
     216       4       1    0.000000   -1.817886    6.752016    3.764988
     217       4       1    0.000000   -2.049662    4.638140    8.109853
     218       4       1    0.000000   -1.499291    4.013088    6.951327
     219       4       1    0.000000   -1.193525    5.147014    9.156915
     220       4       1    0.000000    0.202005    4.973713    9.066259
     221       4       1    0.000000   -1.734403    6.258072    9.921258
     222       4       1    0.000000   -0.921100    7.214082   10.598606
     223       4       1    0.000000   -0.035493    3.782981    6.849174
     224       4       1    0.000000    0.758030    4.289541    7.914564
     225       4       1    0.000000    0.370637    4.257533    5.506927
     226       4       1    0.000000    1.556391    4.986473    5.251438
     227       4       1    0.000000   -0.806524    4.800765    4.861406
     228       4       1    0.000000   -0.743363    5.826567    3.889162
     229       4       1    0.000000    1.920544    5.131691    7.686720
     230       4       1    0.000000    2.322707    5.465336    6.385698
     231       4       1    0.000000    2.195502    6.021341    8.776515
     232       4       1    0.000000    2.769740    7.275279    8.475360
     233       4       1    0.000000    1.091378    5.909016    9.739258
     234       4       1    0.000000    0.553303    7.033066   10.437125
     235       4       1    0.000000    3.074114    6.683566    6.129074
     236       4       1    0.000000    3.341491    7.606798    7.167325
     237       4       1    0.000000    1.623876    6.057768    4.255306
     238       4       1    0.000000    0.508215    6.440708    3.459977
     239       4       1    0.000000    2.162579    8.440622    9.085600
     240       4       1    0.000000    1.083797    8.328502    9.985339

   Bonds

       1       1       2       1
       2       1       3       1
       3       1       4       3
       4       1       6       5
       5       1       7       1
       6       1       7       5
       7       1       8       7
       8       1       9       3
       9       1       9       5
      10       1      10       9
      11       1      11       2
      12       1      12       4
      13       1      12      11
      14       1      13      11
      15       1      14      13
      16       1      15       2
      17       1      16       8
      18       1      16      15
      19       1      17      13
      20       1      17      15
      21       1      18      17
      22       1      19      12
      23       1      20      14
      24       1      20      19
      25       1      21      19
      26       1      22      21
      27       1      23       4
      28       1      23      21
      29       1      24      10
      30       1      24      23
      31       1      25      20
      32       1      26      22
      33       1      26      25
      34       1      27      25
      35       1      28      27
      36       1      29      14
      37       1      29      27
      38       1      30      18
      39       1      30      29
      40       1      31      26
      41       1      32      28
      42       1      32      31
      43       1      33      31
      44       1      34      33
      45       1      35      22
      46       1      35      33
      47       1      36      24
      48       1      36      35
      49       1      37      32
      50       1      38      34
      51       1      38      37
      52       1      39      37
      53       1      40      39
      54       1      41      28
      55       1      41      39
      56       1      42      30
      57       1      42      41
      58       1      43      38
      59       1      44      40
      60       1      44      43
      61       1      45      43
      62       1      46      45
      63       1      47      34
      64       1      47      45
      65       1      48      36
      66       1      48      47
      67       1      49      44
      68       1      50      46
      69       1      50      49
      70       1      51      49
      71       1      52      51
      72       1      53      40
      73       1      53      51
      74       1      54      42
      75       1      54      53
      76       1      55       6
      77       1      55      50
      78       1      56       8
      79       1      56      52
      80       1      56      55
      81       1      57       6
      82       1      57      46
      83       1      58      10
      84       1      58      48
      85       1      58      57
      86       1      59      16
      87       1      59      52
      88       1      60      18
      89       1      60      54
      90       1      60      59
      91       1      62      61
      92       1      63      61
      93       1      64      63
      94       1      66      65
      95       1      67      61
      96       1      67      65
      97       1      68      67
      98       1      69      63
      99       1      69      65
     100       1      70      69
     101       1      71      62
     102       1      72      64
     103       1      72      71
     104       1      73      71
     105       1      74      73
     106       1      75      62
     107       1      76      68
     108       1      76      75
     109       1      77      73
     110       1      77      75
     111       1      78      77
     112       1      79      72
     113       1      80      74
     114       1      80      79
     115       1      81      79
     116       1      82      81
     117       1      83      64
     118       1      83      81
     119       1      84      70
     120       1      84      83
     121       1      85      80
     122       1      86      82
     123       1      86      85
     124       1      87      85
     125       1      88      87
     126       1      89      74
     127       1      89      87
     128       1      90      78
     129       1      90      89
     130       1      91      86
     131       1      92      88
     132       1      92      91
     133       1      93      91
     134       1      94      93
     135       1      95      82
     136       1      95      93
     137       1      96      84
     138       1      96      95
     139       1      97      92
     140       1      98      94
     141       1      98      97
     142       1      99      97
     143       1     100      99
     144       1     101      88
     145       1     101      99
     146       1     102      90
     147       1     102     101
     148       1     103      98
     149       1     104     100
     150       1     104     103
     151       1     105     103
     152       1     106     105
     153       1     107      94
     154       1     107     105
     155       1     108      96
     156       1     108     107
     157       1     109     104
     158       1     110     106
     159       1     110     109
     160       1     111     109
     161       1     112     111
     162       1     113     100
     163       1     113     111
     164       1     114     102
     165       1     114     113
     166       1     115      66
     167       1     115     110
     168       1     116      68
     169       1     116     112
     170       1     116     115
     171       1     117      66
     172       1     117     106
     173       1     118      70
     174       1     118     108
     175       1     118     117
     176       1     119      76
     177       1     119     112
     178       1     120      78
     179       1     120     114
     180       1     120     119
     181       1     122     121
     182       1     123     121
     183       1     124     123
     184       1     126     125
     185       1     127     121
     186       1     127     125
     187       1     128     127
     188       1     129     123
     189       1     129     125
     190       1     130     129
     191       1     131     122
     192       1     132     124
     193       1     132     131
     194       1     133     131
     195       1     134     133
     196       1     135     122
     197       1     136     128
     198       1     136     135
     199       1     137     133
     200       1     137     135
     201       1     138     137
     202       1     139     132
     203       1     140     134
     204       1     140     139
     205       1     141     139
     206       1     142     141
     207       1     143     124
     208       1     143     141
     209       1     144     130
     210       1     144     143
     211       1     145     140
     212       1     146     142
     213       1     146     145
     214       1     147     145
     215       1     148     147
     216       1     149     134
     217       1     149     147
     218       1     150     138
     219       1     150     149
     220       1     151     146
     221       1     152     148
     222       1     152     151
     223       1     153     151
     224       1     154     153
     225       1     155     142
     226       1     155     153
     227       1     156     144
     228       1     156     155
     229       1     157     152
     230       1     158     154
     231       1     158     157
     232       1     159     157
     233       1     160     159
     234       1     161     148
     235       1     161     159
     236       1     162     150
     237       1     162     161
     238       1     163     158
     239       1     164     160
     240       1     164     163
     241       1     165     163
     242       1     166     165
     243       1     167     154
     244       1     167     165
     245       1     168     156
     246       1     168     167
     247       1     169     164
     248       1     170     166
     249       1     170     169
     250       1     171     169
     251       1     172     171
     252       1     173     160
     253       1     173     171
     254       1     174     162
     255       1     174     173
     256       1     175     126
     257       1     175     170
     258       1     176     128
     259       1     176     172
     260       1     176     175
     261       1     177     126
     262       1     177     166
     263       1     178     130
     264       1     178     168
     265       1     178     177
     266       1     179     136
     267       1     179     172
     268       1     180     138
     269       1     180     174
     270       1     180     179
     271       1     182     181
     272       1     183     181
     273       1     184     183
     274       1     186     185
     275       1     187     181
     276       1     187     185
     277       1     188     187
     278       1     189     183
     279       1     189     185
     280       1     190     189
     281       1     191     182
     282       1     192     184
     283       1     192     191
     284       1     193     191
     285       1     194     193
     286       1     195     182
     287       1     196     188
     288       1     196     195
     289       1     197     193
     290       1     197     195
     291       1     198     197
     292       1     199     192
     293       1     200     194
     294       1     200     199
     295       1     201     199
     296       1     202     201
     297       1     203     184
     298       1     203     201
     299       1     204     190
     300       1     204     203
     301       1     205     200
     302       1     206     202
     303       1     206     205
     304       1     207     205
     305       1     208     207
     306       1     209     194
     307       1     209     207
     308       1     210     198
     309       1     210     209
     310       1     211     206
     311       1     212     208
     312       1     212     211
     313       1     213     211
     314       1     214     213
     315       1     215     202
     316       1     215     213
     317       1     216     204
     318       1     216     215
     319       1     217     212
     320       1     218     214
     321       1     218     217
     322       1     219     217
     323       1     220     219
     324       1     221     208
     325       1     221     219
     326       1     222     210
     327       1     222     221
     328       1     223     218
     329       1     224     220
     330       1     224     223
     331       1     225     223
     332       1     226     225
     333       1     227     214
     334       1     227     225
     335       1     228     216
     336       1     228     227
     337       1     229     224
     338       1     230     226
     339       1     230     229
     340       1     231     229
     341       1     232     231
     342       1     233     220
     343       1     233     231
     344       1     234     222
     345       1     234     233
     346       1     235     186
     347       1     235     230
     348       1     236     188
     349       1     236     232
     350       1     236     235
     351       1     237     186
     352       1     237     226
     353       1     238     190
     354       1     238     228
     355       1     238     237
     356       1     239     196
     357       1     239     232
     358       1     240     198
     359       1     240     234
     360       1     240     239

   Angles


   Dihedrals


