240
Atoms. Timestep: 0
1 2.34 2.6 13.706
1 1.93241 2.93336 0.705451
1 1.58037 3.0839 12.5694
1 0.399467 3.82203 12.8183
1 2.44942 0.973509 12.2153
1 2.11394 13.9251 12.0133
1 3.08683 1.37813 13.4502
1 3.33687 0.449838 0.188256
1 1.6478 2.01507 11.5729
1 0.534648 1.64085 10.7712
1 0.772569 3.78138 0.928341
1 14.2881 4.2965 14.1594
1 0.20559 3.0982 2.0756
1 13.1089 2.93248 2.15562
1 2.19015 2.03654 1.79243
1 2.75757 0.779314 1.49265
1 1.08411 2.15404 2.75146
1 0.537181 1.03268 3.44732
1 12.821 4.07947 14.2518
1 12.2624 3.45097 1.10482
1 12.3561 3.50591 12.9704
1 11.3132 2.55622 12.8792
1 13.5229 3.2867 12.1667
1 13.5851 2.26082 11.1943
1 11.2041 2.42668 1.01412
1 10.6463 2.02581 14.0703
1 11.452 1.45537 2.03697
1 11.1165 0.107009 1.83493
1 12.5563 1.82388 2.91486
1 13.3599 0.861433 3.59516
1 10.2291 0.630736 13.862
1 10.479 14.0025 0.600034
1 10.8085 0.301169 12.5576
1 11.3758 13.3439 12.2577
1 11.421 1.46429 11.9488
1 12.5026 1.34668 11.0528
1 11.2257 12.7808 0.343934
1 11.6334 12.4471 13.3446
1 11.9855 12.2967 1.48056
1 13.1664 11.5585 1.23187
1 11.9182 13.3654 2.47725
1 13.0314 13.7396 3.27898
1 12.7934 11.599 13.1219
1 13.5778 11.0839 14.1908
1 13.3604 12.2823 11.9747
1 0.457137 12.448 11.8947
1 12.4819 13.2264 11.2988
1 13.0288 0.047764 10.6029
1 0.745045 11.301 14.0984
1 1.30361 11.9295 12.9455
1 1.20995 11.8746 1.07982
1 2.25279 12.8242 1.17108
1 0.043093 12.0937 1.88352
1 14.281 13.1196 2.85596
1 2.36198 12.9538 13.0362
1 2.91977 13.3547 14.28
1 1.00966 13.5566 11.1355
1 0.206134 0.218988 10.4551
1 2.14508 13.9162 2.10148
1 1.06341 14.0338 2.99745
2 8.30372 10.4521 12.9492
2 7.7461 11.078 14.104
2 7.45655 9.93617 11.8979
2 6.05975 10.1016 11.9801
2 9.11307 8.45891 12.0123
2 9.4464 7.10976 12.2131
2 9.36231 9.42788 13.037
2 9.92089 9.02451 14.2797
2 8.00852 8.829 11.1352
2 7.2037 7.86786 10.4543
2 6.27933 11.2953 14.1976
2 5.49378 10.7833 13.1285
2 5.86945 10.8177 1.23751
2 4.68782 10.081 1.48659
2 8.21235 10.5029 1.0842
2 9.25468 9.55241 1.17256
2 7.04629 10.283 1.88907
2 6.98429 9.25602 2.86046
2 4.33344 9.93544 13.3507
2 3.9267 9.59951 0.349816
2 4.07393 9.04133 12.2618
2 3.50726 7.78377 12.5608
2 5.18011 9.15978 11.3029
2 5.72661 8.03947 10.6051
2 3.18019 8.37759 0.604502
2 2.92881 7.45154 13.865
2 3.81951 7.97047 1.83743
2 4.15279 6.62134 2.03831
2 4.62145 9.01074 2.48194
2 5.73451 8.63549 3.28346
2 3.34506 6.05582 14.0709
2 3.90355 5.65239 1.01362
2 4.01128 5.52798 12.8781
2 5.05357 4.57743 12.9665
2 4.11919 6.62168 11.9496
2 5.20021 6.74031 11.0533
2 4.96209 4.62817 1.10146
2 5.51974 4.00228 14.2467
2 5.80926 5.14413 2.15269
2 7.20605 4.97878 2.07035
2 5.25731 6.25128 2.91537
2 6.06212 7.21241 3.59634
2 6.98651 3.78486 14.1529
2 7.77204 4.29691 0.922121
2 7.39637 4.26252 12.8131
2 8.57801 4.99929 12.564
2 6.21957 4.79732 12.1616
2 6.28155 5.82434 11.1902
2 8.93238 5.14479 0.699845
2 9.33913 5.48074 13.7008
2 9.19187 6.03894 1.78877
2 9.75849 7.29651 1.48974
2 8.08567 5.92055 2.74757
2 7.5392 7.04083 3.4454
2 10.0856 6.70265 13.4461
2 10.337 7.62872 0.185616
2 8.64443 6.06952 11.5686
2 7.53133 6.44484 10.7672
2 9.14662 8.45862 2.10094
2 8.06561 8.33999 2.99722
3 9.32982 2.60857 6.40002
3 8.92077 2.94766 7.6974
3 8.57114 3.08537 5.26002
3 7.38582 3.81706 5.50535
3 9.44921 0.977316 4.91566
3 9.12072 13.9264 4.71943
3 10.0821 1.3893 6.15014
3 10.3374 0.467716 7.1928
3 8.64416 2.01303 4.26707
3 7.5338 1.63113 3.46421
3 7.757 3.79127 7.91483
3 6.97165 4.2971 6.84278
3 7.19176 3.10946 9.06347
3 5.79529 2.94087 9.14564
3 9.18336 2.05807 8.78977
3 9.75449 0.801912 8.49455
3 8.07451 2.1736 9.74538
3 7.5313 1.05334 10.4455
3 5.50624 4.07202 6.93397
3 4.94926 3.44688 8.08931
3 5.043 3.49349 5.65454
3 4.00268 2.54051 5.56627
3 6.21228 3.27487 4.85358
3 6.2805 2.24796 3.88293
3 3.89401 2.41898 8.00174
3 3.33578 2.01232 6.75943
3 4.14526 1.45448 9.03056
3 3.81679 0.103531 8.83459
3 5.2469 1.83233 9.90839
3 6.05451 0.876097 10.5935
3 2.92853 0.613043 6.55735
3 3.18378 13.9915 7.60014
3 3.51152 0.278918 5.25566
3 4.08264 13.3227 4.96061
3 4.1219 1.44183 4.64513
3 5.20398 1.32584 3.74945
3 3.93614 12.7723 7.35052
3 4.34522 12.4332 6.05312
3 4.69488 12.2956 8.49059
3 5.88032 11.564 8.24543
3 4.62189 13.368 9.48347
3 5.73217 13.7498 10.2865
3 5.50909 11.5897 5.83575
3 6.29447 11.0842 6.9079
3 6.07417 12.2714 4.68687
3 7.47063 12.44 4.60449
3 5.19142 13.2072 4.0049
3 5.73457 0.027668 3.30494
3 7.7598 11.3092 6.81636
3 8.31676 11.9339 5.66075
3 8.22287 11.8878 8.09582
3 9.2632 12.8407 8.18378
3 7.05385 12.106 8.89729
3 6.98559 13.133 9.86814
3 9.37217 12.9617 5.74811
3 9.93018 13.3685 6.99052
3 8.01896 13.5486 3.84178
3 7.21137 0.205048 3.15697
3 9.14402 13.9391 9.10521
3 8.06208 14.0551 10.0011
4 1.31569 10.4425 5.64052
4 0.765269 11.0675 6.79908
4 0.459513 9.93356 4.59348
4 13.364 10.1068 4.68417
4 2.10503 8.44502 4.70192
4 2.43107 7.09395 4.89967
4 2.37144 9.41402 5.72305
4 2.93533 9.0067 6.96282
4 1.00033 8.82249 3.82911
4 0.187017 7.86648 3.15175
4 13.6014 11.2974 6.90126
4 12.8079 10.7908 5.83591
4 13.1952 10.8229 8.24348
4 12.0093 10.0942 8.49909
4 1.23411 10.4887 8.07593
4 2.27378 9.53461 8.15848
4 0.072408 10.2797 8.88889
4 0.009234 9.25389 9.86111
4 11.6453 9.94881 6.06382
4 11.2429 9.61534 7.36484
4 11.3705 9.05915 4.97397
4 10.7962 7.80522 5.27509
4 12.4746 9.1715 4.01117
4 13.0126 8.04746 3.31324
4 10.4915 8.39707 7.62144
4 10.2244 7.4738 6.58313
4 11.1347 7.98666 8.85082
4 11.4608 6.6356 9.04853
4 11.9419 9.02284 9.49517
4 13.0576 8.63983 10.2903
4 10.6308 6.07398 6.78761
4 11.1946 5.66664 8.02735
4 11.2923 5.54604 5.592
4 12.3319 4.59191 5.6745
4 11.4034 6.63993 4.6648
4 12.4821 6.75202 3.76499
4 12.2503 4.63814 8.10985
4 12.8007 4.01309 6.95133
4 13.1065 5.14701 9.15691
4 0.202005 4.97371 9.06626
4 12.5656 6.25807 9.92126
4 13.3789 7.21408 10.5986
4 14.2645 3.78298 6.84917
4 0.75803 4.28954 7.91456
4 0.370637 4.25753 5.50693
4 1.55639 4.98647 5.25144
4 13.4935 4.80076 4.86141
4 13.5566 5.82657 3.88916
4 1.92054 5.13169 7.68672
4 2.32271 5.46534 6.3857
4 2.1955 6.02134 8.77651
4 2.76974 7.27528 8.47536
4 1.09138 5.90902 9.73926
4 0.553303 7.03307 10.4371
4 3.07411 6.68357 6.12907
4 3.34149 7.6068 7.16732
4 1.62388 6.05777 4.25531
4 0.508215 6.44071 3.45998
4 2.16258 8.44062 9.0856
4 1.0838 8.3285 9.98534
240
Atoms. Timestep: 10
1 2.39284 2.66837 13.7038
1 2.01465 3.02528 0.732388
1 1.66695 3.12351 12.5475
1 0.404297 3.82973 12.7273
1 2.50911 0.967567 12.1404
1 2.17044 13.913 11.974
1 3.13874 1.40945 13.4401
1 3.35377 0.465554 0.240406
1 1.71602 2.0217 11.5103
1 0.5171 1.69066 10.7286
1 0.766804 3.79173 0.985222
1 14.2608 4.25206 14.1724
1 0.150958 3.17561 2.14951
1 13.0858 3.02494 2.23452
1 2.2624 2.11094 1.86543
1 2.84058 0.813928 1.61664
1 1.05483 2.21151 2.75196
1 0.558084 1.03897 3.47782
1 12.7479 4.04752 14.2144
1 12.2048 3.48956 1.13684
1 12.3524 3.49928 12.9577
1 11.2546 2.57058 12.871
1 13.4875 3.35067 12.0699
1 13.5559 2.31587 11.0611
1 11.1013 2.48079 1.04481
1 10.563 2.10816 14.0837
1 11.4014 1.4771 2.07643
1 11.0306 0.135489 1.9182
1 12.5208 1.84442 2.90254
1 13.3619 0.819595 3.50532
1 10.1966 0.645056 13.8694
1 10.4459 13.9839 0.64456
1 10.7572 0.306157 12.5105
1 11.3588 13.3227 12.3007
1 11.381 1.45658 11.9317
1 12.4553 1.36616 10.9572
1 11.1817 12.6791 0.376062
1 11.5942 12.3813 13.3745
1 11.9351 12.2079 1.50638
1 13.1828 11.4936 1.32951
1 11.879 13.3717 2.45133
1 13.0328 13.6634 3.27502
1 12.8235 11.5859 13.11
1 13.6494 11.1193 14.2186
1 13.3755 12.1801 11.9196
1 0.461303 12.3561 11.8417
1 12.4562 13.1644 11.2568
1 12.9806 0.0539994 10.548
1 0.856425 11.2618 14.1003
1 1.35733 11.8807 12.9181
1 1.20737 11.8864 1.06582
1 2.27395 12.8426 1.15048
1 0.0614755 12.0528 1.91709
1 14.305 13.0533 2.93313
1 2.39458 12.9168 13.002
1 2.98228 13.272 14.2588
1 1.04824 13.5103 11.1306
1 0.221342 0.211476 10.4843
1 2.2 13.9362 2.12717
1 1.05948 14.0238 3.01245
2 8.34338 10.5122 12.8851
2 7.7882 11.1006 14.106
2 7.45774 9.96202 11.8754
2 6.08527 10.1393 11.9835
2 9.13214 8.44163 11.99
2 9.44875 7.10846 12.1986
2 9.43158 9.47242 12.9861
2 9.95073 9.0822 14.2627
2 8.05047 8.82829 11.0893
2 7.22354 7.83572 10.4726
2 6.25158 11.2936 14.2402
2 5.46331 10.7982 13.1391
2 5.85797 10.8163 1.30247
2 4.63795 10.0967 1.4974
2 8.2157 10.5583 1.10645
2 9.31518 9.60396 1.19131
2 7.0601 10.3544 1.9333
2 6.9965 9.31835 2.9171
2 4.2785 9.97954 13.3498
2 3.84615 9.66382 0.342164
2 4.0514 9.05936 12.2169
2 3.42325 7.78531 12.4405
2 5.21865 9.2131 11.3398
2 5.7174 8.02199 10.6734
2 3.1453 8.38355 0.622485
2 2.95442 7.44751 13.8285
2 3.76915 7.93311 1.86486
2 4.07334 6.60026 2.07647
2 4.6019 8.9492 2.44095
2 5.76374 8.67658 3.27407
2 3.32062 5.99786 14.06
2 3.83171 5.62651 1.00881
2 3.94091 5.51348 12.8434
2 5.02752 4.56772 12.9236
2 4.01724 6.59895 11.8861
2 5.16988 6.72385 11.0438
2 4.94222 4.68527 1.10615
2 5.45628 4.03122 14.2221
2 5.80092 5.08325 2.21696
2 7.16853 4.9129 2.1324
2 5.20017 6.25115 2.9215
2 6.05141 7.24393 3.57712
2 6.98489 3.8533 14.1361
2 7.82132 4.28762 0.945077
2 7.3598 4.27226 12.7736
2 8.59876 4.9535 12.5808
2 6.19831 4.71312 12.0472
2 6.25769 5.78872 11.1309
2 9.03203 5.1039 0.706013
2 9.42328 5.40202 13.7028
2 9.3001 6.04351 1.81633
2 9.78202 7.34266 1.52077
2 8.07964 5.91483 2.65517
2 7.58177 7.06202 3.42813
2 10.1087 6.68309 13.4272
2 10.3591 7.63398 0.183013
2 8.65121 6.08005 11.6497
2 7.53944 6.36722 10.7623
2 9.20007 8.48937 2.12753
2 8.1096 8.3947 3.04579
3 9.43364 2.71553 6.41895
3 9.0206 3.03153 7.7195
3 8.58879 3.09067 5.25225
3 7.35274 3.80586 5.42696
3 9.46379 0.971745 4.88887
3 9.18275 13.9297 4.68021
3 10.1166 1.40656 6.13664
3 10.2929 0.443059 7.22935
3 8.6624 1.99801 4.24877
3 7.48829 1.68083 3.46828
3 7.78558 3.80651 7.95113
3 6.96293 4.24264 6.80964
3 7.18156 3.23483 9.18697
3 5.81772 3.00093 9.22263
3 9.16649 2.03229 8.81456
3 9.81647 0.756552 8.59687
3 8.08546 2.24853 9.7642
3 7.57306 1.07776 10.4641
3 5.46618 4.07089 6.93136
3 4.9481 3.46239 8.1369
3 5.0034 3.5442 5.61714
3 3.94032 2.58529 5.51988
3 6.16353 3.34212 4.78924
3 6.22301 2.32739 3.78272
3 3.85231 2.46224 8.00685
3 3.34298 2.08521 6.73744
3 4.12788 1.44031 9.02765
3 3.69559 0.125146 8.90053
3 5.19739 1.84824 9.91997
3 6.02067 0.857128 10.5571
3 3.00415 0.644496 6.49261
3 3.13555 13.9826 7.59264
3 3.46484 0.292814 5.16623
3 4.06697 13.3158 4.97549
3 4.05538 1.46406 4.56799
3 5.16488 1.33994 3.67761
3 3.86513 12.7081 7.33001
3 4.22973 12.3693 6.07688
3 4.68477 12.3277 8.45579
3 5.90553 11.5898 8.29727
3 4.58629 13.3971 9.44149
3 5.73019 13.7079 10.2796
3 5.47011 11.5843 5.82049
3 6.27778 11.0966 6.93028
3 6.08292 12.1682 4.64941
3 7.46794 12.3795 4.57766
3 5.17142 13.1413 4.06176
3 5.67327 0.00436151 3.32211
3 7.8221 11.2858 6.83192
3 8.37533 11.8525 5.62361
3 8.18554 11.9061 8.08355
3 9.30574 12.7907 8.17579
3 7.07098 12.0084 9.01373
3 7.024 13.0734 9.97066
3 9.42082 12.9362 5.72618
3 9.92895 13.3077 6.9779
3 8.03378 13.5334 3.87974
3 7.19287 0.219826 3.22442
3 9.26019 13.8741 9.17083
3 8.1112 14.0192 10.0577
4 1.37713 10.4448 5.58648
4 0.871817 11.1053 6.77281
4 0.43719 9.99784 4.51302
4 13.3593 10.1533 4.62672
4 2.1932 8.42513 4.67295
4 2.50192 7.09606 4.8357
4 2.46453 9.4234 5.71249
4 3.00036 9.03755 6.99301
4 1.0594 8.88319 3.80909
4 0.200991 7.89491 3.19184
4 13.6232 11.2532 6.91506
4 12.7678 10.8277 5.79943
4 13.2246 10.8501 8.32765
4 11.9805 10.1384 8.54902
4 1.26814 10.5393 8.08091
4 2.30667 9.51853 8.16275
4 0.127442 10.3804 8.94928
4 0.0520169 9.30489 9.87596
4 11.5705 9.99173 6.07265
4 11.1911 9.68917 7.41093
4 11.3499 9.06691 4.96616
4 10.7461 7.80765 5.16756
4 12.4778 9.17119 4.08042
4 12.9566 8.0514 3.32612
4 10.4354 8.42737 7.64299
4 10.2495 7.47311 6.54485
4 11.0942 7.9748 8.92571
4 11.3921 6.60489 9.1062
4 11.8971 9.02403 9.54221
4 13.0808 8.70286 10.3013
4 10.6467 6.03771 6.7652
4 11.1364 5.61784 8.05442
4 11.2273 5.52015 5.52382
4 12.3595 4.62841 5.67781
4 11.2992 6.63591 4.55023
4 12.4465 6.75559 3.68781
4 12.2273 4.59566 8.1519
4 12.7567 4.0244 6.92988
4 13.1505 5.06705 9.19185
4 0.198558 4.85446 9.1324
4 12.5491 6.21801 9.90456
4 13.4003 7.22029 10.4927
4 14.2857 3.77899 6.84049
4 0.826985 4.21581 7.94363
4 0.347682 4.24225 5.45652
4 1.53624 4.99048 5.29182
4 13.4735 4.75119 4.77655
4 13.5463 5.8261 3.83056
4 1.96798 5.07745 7.69776
4 2.37805 5.37813 6.41496
4 2.24546 5.96455 8.82774
4 2.84459 7.24524 8.61287
4 1.09648 5.8302 9.76014
4 0.568754 7.02115 10.4206
4 3.06253 6.62414 6.12984
4 3.33353 7.58615 7.21436
4 1.65353 6.06048 4.24368
4 0.489511 6.43458 3.46497
4 2.23847 8.42242 9.16291
4 1.09053 8.32201 9.98835
240
Atoms. Timestep: 20
1 2.58983 2.81063 13.7193
1 2.13863 3.18296 0.794137
1 1.66938 3.18 12.4756
1 0.402312 3.88694 12.7195
1 2.69756 0.975414 12.0654
1 2.3174 13.8536 11.8427
1 3.1432 1.43425 13.4388
1 3.34099 0.4356 0.212149
1 1.77189 2.07706 11.4499
1 0.555344 1.67037 10.7037
1 0.802756 3.84177 0.966574
1 14.2503 4.17166 14.105
1 0.171481 3.35539 2.28664
1 12.9751 3.16644 2.37752
1 2.32495 2.1796 1.94372
1 2.99178 0.859045 1.69122
1 1.10908 2.25914 2.83102
1 0.555054 1.04095 3.40803
1 12.7655 4.03958 14.2686
1 12.1036 3.54465 1.18316
1 12.2861 3.53559 12.8773
1 11.1933 2.60542 12.8012
1 13.4717 3.49499 11.9074
1 13.5137 2.44141 10.898
1 10.9844 2.58129 1.11608
1 10.4633 2.13977 14.0917
1 11.22 1.53321 2.20472
1 10.8779 0.09485 2.01142
1 12.4725 1.86558 2.93321
1 13.3693 0.839054 3.45641
1 10.2179 0.621368 13.8603
1 10.4161 13.9387 0.668889
1 10.667 0.248962 12.4634
1 11.3246 13.2559 12.2055
1 11.2345 1.49847 11.8253
1 12.3573 1.40591 10.8644
1 10.9795 12.5669 0.395873
1 11.4918 12.2616 13.3412
1 11.8773 12.1374 1.59441
1 13.1721 11.4225 1.34932
1 11.8295 13.2988 2.51969
1 13.0138 13.6851 3.25916
1 12.7646 11.5381 13.1413
1 13.6423 11.1423 14.2417
1 13.3696 12.019 11.7692
1 0.545268 12.2 11.6589
1 12.4325 13.1136 11.2367
1 12.9838 -0.0031721 10.5653
1 0.866273 11.2624 14.0954
1 1.45507 11.811 12.8469
1 1.28399 11.8684 1.13235
1 2.35192 12.8234 1.22187
1 0.131086 11.875 2.06357
1 14.3414 12.948 3.04544
1 2.54407 12.8588 12.9505
1 3.0615 13.2896 14.2628
1 1.06333 13.4924 11.0881
1 0.166053 0.216002 10.5087
1 2.27365 13.8974 2.22533
1 1.14122 13.9956 3.11978
2 8.42917 10.5674 12.8872
2 7.8052 11.1346 14.1135
2 7.5421 10.1219 11.7323
2 6.09248 10.2668 11.8451
2 9.28424 8.53355 11.8677
2 9.58636 7.11497 12.1118
2 9.51169 9.55812 12.9451
2 10.0362 9.15656 14.2467
2 8.0799 8.87848 11.0799
2 7.18609 7.82291 10.5378
2 6.28663 11.2303 14.2325
2 5.45103 10.842 13.0999
2 5.82362 10.8929 1.3387
2 4.56992 10.1315 1.5185
2 8.28363 10.6262 1.14423
2 9.37234 9.70312 1.21074
2 7.09419 10.5058 2.09504
2 7.06379 9.42568 3.07207
2 4.11534 10.1153 13.302
2 3.65406 9.78494 0.366599
2 3.95162 9.12245 12.1945
2 3.27618 7.83581 12.3788
2 5.16204 9.17954 11.3088
2 5.73396 8.0094 10.6899
2 3.13234 8.40098 0.581864
2 2.95483 7.42208 13.7935
2 3.60995 7.95437 1.96372
2 3.91515 6.53651 2.1894
2 4.56067 9.03313 2.48314
2 5.73068 8.67239 3.23666
2 3.21587 5.99871 14.0335
2 3.73878 5.54898 1.06737
2 3.86373 5.43352 12.768
2 4.96074 4.48046 12.8631
2 3.90828 6.56936 11.7312
2 5.12536 6.68847 10.9348
2 4.87756 4.62101 1.12829
2 5.48312 4.08785 14.2322
2 5.73878 4.94767 2.32143
2 7.23702 4.78451 2.24606
2 5.19226 6.15903 2.98178
2 6.08339 7.2286 3.49559
2 6.94195 3.91586 14.1384
2 7.81176 4.27085 0.990769
2 7.38158 4.21898 12.7441
2 8.65229 4.90806 12.5313
2 6.11679 4.54439 11.9258
2 6.20721 5.65744 10.9763
2 9.18058 4.93172 0.793071
2 9.60613 5.25249 13.7117
2 9.32459 6.00712 1.84865
2 9.9506 7.31707 1.58857
2 8.11944 5.92221 2.71789
2 7.57597 7.08626 3.37733
2 10.1521 6.66232 13.4096
2 10.3184 7.67709 0.190182
2 8.67854 6.03387 11.5776
2 7.53039 6.36886 10.7796
2 9.33195 8.5828 2.22037
2 8.17351 8.43966 3.13023
3 9.61098 2.83956 6.38407
3 9.14964 3.14394 7.77487
3 8.64789 3.14566 5.2183
3 7.39039 3.84611 5.446
3 9.62422 0.98894 4.79694
3 9.29339 13.8558 4.5665
3 10.1114 1.43718 6.15455
3 10.2707 0.427633 7.22222
3 8.68188 2.0586 4.22825
3 7.48237 1.65137 3.45891
3 7.84336 3.87198 7.98788
3 6.95407 4.1677 6.84348
3 7.21477 3.40189 9.32759
3 5.70836 3.19356 9.36883
3 9.27549 2.12449 8.85222
3 9.93223 0.812481 8.64945
3 8.12555 2.2293 9.84595
3 7.55167 1.02307 10.4562
3 5.45627 4.05973 6.92927
3 4.84978 3.51253 8.12862
3 4.95549 3.62244 5.54005
3 3.86914 2.67202 5.45848
3 6.1306 3.51361 4.6011
3 6.17041 2.41335 3.61541
3 3.79221 2.52323 8.04017
3 3.26224 2.10799 6.74147
3 3.95224 1.55641 9.14927
3 3.5618 0.128782 8.97444
3 5.21024 1.87751 9.94252
3 6.09827 0.858653 10.5106
3 3.0143 0.66928 6.52122
3 3.10475 13.9851 7.59968
3 3.35777 0.259512 5.10286
3 3.9785 13.2503 4.88397
3 3.9028 1.52313 4.4354
3 5.06595 1.39471 3.57573
3 3.66956 12.6036 7.3881
3 4.10686 12.2164 5.98345
3 4.62819 12.2984 8.49928
3 5.86602 11.5382 8.32156
3 4.53407 13.3545 9.50136
3 5.73021 13.7272 10.2685
3 5.42701 11.5005 5.81917
3 6.30217 11.1678 6.9451
3 6.06715 12.013 4.51778
3 7.53192 12.2026 4.44494
3 5.16619 13.135 3.9958
3 5.69416 0.00447004 3.34965
3 7.79853 11.2659 6.80612
3 8.42483 11.7943 5.58103
3 8.24874 11.8157 8.17269
3 9.35468 12.7392 8.26941
3 7.12478 11.8733 9.15089
3 7.03622 12.9614 10.1285
3 9.50322 12.8138 5.64494
3 9.99745 13.2723 6.98031
3 8.0431 13.4998 3.86101
3 7.13736 0.203249 3.31426
3 9.35172 13.8353 9.34047
3 8.17207 13.9632 10.203
4 1.44224 10.4944 5.55966
4 0.875392 11.0906 6.76581
4 0.586411 10.1877 4.39286
4 13.3775 10.3382 4.53011
4 2.33672 8.52666 4.51113
4 2.6666 7.06126 4.75354
4 2.57329 9.50784 5.6456
4 3.06024 9.03618 6.97172
4 1.08341 8.88246 3.78227
4 0.181027 7.88037 3.23422
4 13.6577 11.216 6.91121
4 12.7676 10.8656 5.81697
4 13.2131 10.934 8.32748
4 11.9198 10.1994 8.57658
4 1.36748 10.5712 8.14547
4 2.42125 9.56602 8.23887
4 0.173224 10.5314 9.10616
4 0.0917167 9.38405 10.0504
4 11.4391 10.1599 6.05195
4 11.0002 9.80857 7.40903
4 11.2714 9.10093 4.93951
4 10.5725 7.83012 5.14102
4 12.4593 9.2341 4.01992
4 13.0091 8.07872 3.34126
4 10.4404 8.43601 7.67583
4 10.2895 7.46257 6.55772
4 10.9045 7.97687 9.02908
4 11.2549 6.54872 9.23881
4 11.8645 9.08948 9.59183
4 13.0786 8.67207 10.2669
4 10.5575 6.0172 6.75997
4 11.0579 5.53792 8.08279
4 11.1809 5.47548 5.50556
4 12.2959 4.56708 5.56188
4 11.1648 6.55123 4.41945
4 12.3578 6.69191 3.56519
4 12.1721 4.54337 8.14746
4 12.769 4.0344 6.9489
4 13.0347 4.89497 9.33686
4 0.249047 4.66109 9.28433
4 12.5369 6.18817 9.90569
4 13.4197 7.22082 10.4479
4 14.2395 3.80548 6.82948
4 0.815873 4.12936 7.99239
4 0.362088 4.22964 5.40131
4 1.6278 4.95995 5.21773
4 13.4304 4.63054 4.64221
4 13.4847 5.72671 3.67947
4 2.1198 4.88482 7.80106
4 2.50803 5.25644 6.40956
4 2.31824 5.89659 8.90798
4 3.00297 7.18708 8.67314
4 1.16886 5.77307 9.82279
4 0.606845 6.99844 10.3641
4 3.10428 6.61005 6.15184
4 3.30966 7.55824 7.24402
4 1.69533 6.04133 4.21867
4 0.504282 6.43467 3.47662
4 2.34824 8.48076 9.24729
4 1.17068 8.35284 10.0763
240
Atoms. Timestep: 30
1 2.6925 2.93182 13.6959
1 2.24762 3.25847 0.809265
1 1.73226 3.22557 12.4888
1 0.398809 3.88987 12.6955
1 2.78101 0.997889 11.9674
1 2.47932 13.8506 11.7366
1 3.15876 1.45546 13.3992
1 3.34411 0.510315 0.232802
1 1.81248 2.07385 11.4535
1 0.509787 1.66632 10.6684
1 0.830909 3.89936 1.00842
1 14.2451 4.10296 14.1382
1 0.188374 3.47246 2.35945
1 12.9938 3.27101 2.45337
1 2.41361 2.23452 1.96067
1 3.00503 0.879926 1.67462
1 1.15923 2.34085 2.87746
1 0.501243 1.03143 3.34292
1 12.7541 4.00831 14.2068
1 12.0918 3.62575 1.25473
1 12.2315 3.6516 12.8583
1 11.0819 2.63753 12.7669
1 13.4117 3.6258 11.8106
1 13.4869 2.47228 10.7962
1 10.8493 2.58229 1.15743
1 10.4515 2.08184 14.0831
1 11.0266 1.52397 2.33248
1 10.7805 0.0694168 2.05881
1 12.3881 1.95677 3.00363
1 13.3357 0.875778 3.40477
1 10.2532 0.589141 13.8528
1 10.3529 13.8976 0.668483
1 10.6197 0.216083 12.417
1 11.2142 13.1709 12.1644
1 11.1177 1.50901 11.6799
1 12.3238 1.38697 10.7634
1 10.8785 12.4539 0.396904
1 11.3565 12.1676 13.2982
1 11.8145 12.0894 1.60613
1 13.1729 11.4046 1.35801
1 11.7525 13.2766 2.62652
1 13.064 13.7237 3.26121
1 12.7483 11.4682 13.0428
1 13.6064 11.1557 14.2232
1 13.3966 11.8871 11.694
1 0.575183 12.0579 11.5421
1 12.4335 13.0591 11.2285
1 12.9973 0.0297399 10.6328
1 0.80683 11.3521 14.1
1 1.50154 11.7534 12.7754
1 1.36539 11.7221 1.17221
1 2.45297 12.7751 1.25383
1 0.154248 11.7447 2.22238
1 14.3658 12.903 3.16676
1 2.70127 12.7987 12.8902
1 3.06028 13.3325 14.2926
1 1.13428 13.4466 11.0217
1 0.184308 0.204237 10.5871
1 2.44169 13.8878 2.32274
1 1.22446 13.9769 3.2238
2 8.43628 10.6437 12.8457
2 7.79449 11.1026 14.111
2 7.55168 10.2902 11.5935
2 6.05292 10.3947 11.7096
2 9.4659 8.57597 11.7502
2 9.73952 7.1095 12.0071
2 9.60877 9.63224 12.9266
2 10.0758 9.16166 14.2445
2 8.13389 8.95692 11.0688
2 7.18974 7.88003 10.6564
2 6.31407 11.1711 14.2007
2 5.4337 10.8667 13.0258
2 5.83952 10.9587 1.30959
2 4.52092 10.2209 1.54958
2 8.31366 10.7477 1.19171
2 9.48594 9.72262 1.25793
2 7.1181 10.667 2.20524
2 7.05001 9.53258 3.17792
2 3.97796 10.2674 13.2635
2 3.56829 9.89452 0.323106
2 3.86351 9.16835 12.0977
2 3.22591 7.83237 12.3691
2 5.14258 9.23668 11.2791
2 5.70695 7.99551 10.6713
2 3.07387 8.4211 0.622168
2 2.90821 7.46045 13.7934
2 3.49571 7.96106 2.02438
2 3.79583 6.50627 2.30504
2 4.44973 9.05622 2.5528
2 5.76222 8.64348 3.25911
2 3.177 5.97536 14.0148
2 3.63923 5.50205 1.09322
2 3.74431 5.40304 12.7035
2 4.87867 4.39046 12.8392
2 3.80244 6.51459 11.662
2 5.03449 6.63522 10.7857
2 4.8443 4.50664 1.19276
2 5.49725 4.13146 14.2186
2 5.75064 4.84767 2.41074
2 7.21716 4.73147 2.32504
2 5.12826 6.11353 3.02543
2 6.07824 7.20902 3.38072
2 6.96754 3.97618 14.1704
2 7.85748 4.2105 1.02477
2 7.40033 4.12562 12.7503
2 8.7169 4.8705 12.4882
2 6.11962 4.41536 11.8559
2 6.17455 5.53492 10.8341
2 9.28055 4.81633 0.793132
2 9.7259 5.15713 13.7052
2 9.35355 5.95857 1.91994
2 10.0457 7.31222 1.65154
2 8.16148 5.85638 2.83279
2 7.54205 7.0976 3.31885
2 10.1882 6.67998 13.4071
2 10.3131 7.68306 0.197764
2 8.76576 6.01507 11.4797
2 7.48027 6.42822 10.7697
2 9.47751 8.60524 2.31207
2 8.25889 8.47559 3.19869
3 9.66661 2.89117 6.40426
3 9.23964 3.25165 7.81359
3 8.72095 3.23141 5.19578
3 7.39768 3.8907 5.46258
3 9.7228 0.964556 4.69362
3 9.4158 13.8062 4.47909
3 10.1434 1.42623 6.08354
3 10.2788 0.465683 7.22998
3 8.75353 2.03934 4.1977
3 7.49007 1.63626 3.472
3 7.85045 3.92471 8.06331
3 6.97141 4.13143 6.86431
3 7.2129 3.46925 9.38509
3 5.72673 3.34557 9.46664
3 9.40958 2.18965 8.98346
3 9.97563 0.850466 8.65531
3 8.17051 2.26797 9.87501
3 7.55569 1.00747 10.4269
3 5.50216 4.02411 6.90154
3 4.82107 3.61364 8.17905
3 4.9233 3.71464 5.51204
3 3.7591 2.70333 5.41833
3 6.13908 3.6527 4.49296
3 6.19283 2.48612 3.50467
3 3.67984 2.573 8.08257
3 3.22083 2.09092 6.73568
3 3.78991 1.58258 9.30369
3 3.5373 0.158721 9.04824
3 5.13574 1.99745 9.97685
3 6.07098 0.874607 10.4092
3 2.94919 0.627631 6.51861
3 3.07082 13.9708 7.66144
3 3.27006 0.251444 5.11026
3 3.86057 13.1691 4.78816
3 3.77655 1.55591 4.36113
3 4.98371 1.41085 3.45442
3 3.57402 12.5029 7.33083
3 3.99891 12.1255 5.95706
3 4.50927 12.2057 8.58688
3 5.84141 11.4861 8.33942
3 4.48078 13.3701 9.58998
3 5.75504 13.7475 10.3067
3 5.41816 11.416 5.72582
3 6.29427 11.2297 6.93019
3 6.04719 11.9308 4.4114
3 7.51818 12.0656 4.28822
3 5.11379 13.0684 3.92588
3 5.71326 0.0509171 3.3863
3 7.77738 11.3164 6.84934
3 8.41772 11.7324 5.53843
3 8.35018 11.6499 8.25893
3 9.45013 12.7245 8.32805
3 7.07898 11.7582 9.21716
3 7.0414 12.8652 10.2402
3 9.62458 12.7573 5.64474
3 10.0314 13.2659 7.0066
3 8.08463 13.3993 3.80488
3 7.16866 0.200709 3.38347
3 9.4231 13.8412 9.42111
3 8.23777 13.9315 10.3633
4 1.52245 10.5987 5.53303
4 0.839312 10.9857 6.8485
4 0.584993 10.294 4.29604
4 13.4274 10.4779 4.42673
4 2.52129 8.54445 4.43758
4 2.75915 7.10675 4.70312
4 2.67268 9.54563 5.59851
4 3.07259 9.02895 6.95724
4 1.15955 8.97014 3.73846
4 0.194268 7.87672 3.3243
4 13.6636 11.2007 6.94555
4 12.7965 10.8919 5.77195
4 13.213 10.9523 8.33932
4 11.8679 10.2693 8.5875
4 1.41209 10.6543 8.20713
4 2.54873 9.64292 8.27267
4 0.196868 10.6286 9.20842
4 0.119338 9.48309 10.2039
4 11.3251 10.2593 6.01535
4 10.8998 9.93834 7.39846
4 11.1877 9.23129 4.86867
4 10.5302 7.84725 5.12877
4 12.4542 9.33717 3.95336
4 13.012 8.04285 3.35957
4 10.445 8.45185 7.69247
4 10.2539 7.44565 6.60309
4 10.777 7.99549 9.1227
4 11.1057 6.52663 9.29223
4 11.8017 9.08122 9.58529
4 13.1083 8.62612 10.264
4 10.5237 5.98903 6.80788
4 10.9644 5.51919 8.11808
4 11.0952 5.45688 5.4695
4 12.1926 4.41221 5.5473
4 11.0508 6.54314 4.37654
4 12.2673 6.68362 3.45232
4 12.1235 4.49755 8.19251
4 12.7601 4.0509 6.86525
4 13.0383 4.76531 9.4732
4 0.195616 4.54934 9.40743
4 12.4619 6.11774 9.9671
4 13.4142 7.16317 10.3837
4 14.2461 3.8826 6.82298
4 0.84128 4.06424 8.04929
4 0.388587 4.19041 5.42866
4 1.69122 4.85736 5.1881
4 13.4124 4.53832 4.55308
4 13.4814 5.62259 3.52471
4 2.24142 4.72284 7.81304
4 2.62887 5.16994 6.40417
4 2.44711 5.76879 8.97127
4 3.04033 7.16317 8.65987
4 1.19581 5.71311 9.85927
4 0.577607 7.00796 10.3592
4 3.17461 6.59661 6.11808
4 3.33039 7.57872 7.20309
4 1.76121 6.01992 4.19696
4 0.499226 6.4464 3.45806
4 2.49787 8.47716 9.30879
4 1.28889 8.37443 10.2038
240
Atoms. Timestep: 40
1 2.64548 2.90363 13.6771
1 2.22077 3.27636 0.784917
1 1.73619 3.21672 12.4555
1 0.417378 3.88147 12.7517
1 2.75093 1.00456 11.9747
1 2.53175 13.8064 11.7003
1 3.22459 1.56222 13.3769
1 3.33478 0.547231 0.172118
1 1.75063 2.07722 11.4617
1 0.560794 1.67351 10.735
1 0.857008 3.9185 1.04565
1 14.2538 4.10703 14.1583
1 0.246789 3.42796 2.33065
1 12.9586 3.2565 2.38542
1 2.42134 2.26558 1.94369
1 2.94348 0.897325 1.59454
1 1.14428 2.34358 2.85122
1 0.554932 1.11087 3.31872
1 12.7546 3.99086 14.2626
1 12.0506 3.59057 1.19137
1 12.1234 3.67588 12.8326
1 11.0339 2.6676 12.7497
1 13.3951 3.57338 11.8176
1 13.457 2.44767 10.8368
1 10.8664 2.5568 1.16455
1 10.5029 2.00006 14.0849
1 10.9876 1.57026 2.35182
1 10.7666 0.0278685 2.07892
1 12.337 1.98895 3.04342
1 13.3178 0.923865 3.38912
1 10.2562 0.543973 13.8405
1 10.3123 13.8502 0.660402
1 10.5951 0.196477 12.4249
1 11.1598 13.1348 12.1117
1 11.1045 1.47917 11.6226
1 12.3037 1.36473 10.7565
1 10.9061 12.454 0.370588
1 11.3221 12.0577 13.2492
1 11.8116 12.1076 1.60668
1 13.129 11.435 1.32687
1 11.7547 13.2635 2.64021
1 12.9938 13.7386 3.26431
1 12.7078 11.4103 13
1 13.6137 11.1871 14.1446
1 13.3509 11.908 11.6683
1 0.646768 12.0645 11.5713
1 12.4243 13.045 11.2482
1 13.0384 -0.0158817 10.7073
1 0.797885 11.4104 14.0932
1 1.49495 11.7781 12.8125
1 1.4026 11.6644 1.21833
1 2.52336 12.7036 1.28735
1 0.159161 11.7611 2.2149
1 14.3961 12.9178 3.20397
1 2.70377 12.8035 12.87
1 3.05274 13.363 14.2502
1 1.2176 13.3795 10.9944
1 0.231035 0.188734 10.6251
1 2.47245 13.8602 2.37717
1 1.27302 14.007 3.24021
2 8.44253 10.6507 12.7941
2 7.76 11.0595 14.0729
2 7.55411 10.3336 11.5761
2 6.01219 10.4497 11.6771
2 9.52696 8.62151 11.7174
2 9.81248 7.12545 11.9609
2 9.64792 9.64016 12.8816
2 10.0603 9.13398 14.2796
2 8.1555 9.01906 11.0591
2 7.19066 7.88897 10.6949
2 6.26071 11.1566 14.1517
2 5.3747 10.9016 12.9791
2 5.8304 10.9457 1.28928
2 4.49689 10.2833 1.5583
2 8.41777 10.7573 1.20646
2 9.51998 9.76805 1.29953
2 7.09859 10.7022 2.16933
2 7.0576 9.54005 3.16369
2 3.98276 10.2862 13.1674
2 3.58917 9.89947 0.350457
2 3.82509 9.21325 12.0503
2 3.27931 7.81338 12.3741
2 5.09154 9.30292 11.2136
2 5.69868 8.08775 10.6773
2 3.0074 8.50055 0.641117
2 2.85309 7.47237 13.8343
2 3.49712 7.97025 2.03044
2 3.7678 6.48113 2.25916
2 4.46159 9.08947 2.57615
2 5.6771 8.69632 3.24508
2 3.16936 5.99192 14.0616
2 3.63573 5.47594 1.115
2 3.71138 5.35542 12.739
2 4.85662 4.38516 12.837
2 3.77264 6.5154 11.6542
2 4.93441 6.61164 10.7234
2 4.8094 4.50011 1.20676
2 5.49258 4.11064 14.2509
2 5.67838 4.89212 2.38625
2 7.25927 4.73282 2.29868
2 5.09706 6.13851 2.98554
2 6.04955 7.23524 3.34226
2 7.00295 3.96076 14.1543
2 7.90691 4.18881 1.04311
2 7.48259 4.14192 12.7232
2 8.77319 4.83312 12.473
2 6.13046 4.42905 11.8597
2 6.20025 5.53236 10.8324
2 9.28258 4.86969 0.810504
2 9.69036 5.22101 13.6686
2 9.44316 5.89449 1.9605
2 9.99409 7.26937 1.65082
2 8.16513 5.8026 2.86169
2 7.55641 7.06843 3.30171
2 10.2195 6.63035 13.3785
2 10.3566 7.64797 0.21214
2 8.80055 6.01704 11.4331
2 7.54742 6.43106 10.8005
2 9.4995 8.60047 2.37144
2 8.27636 8.4562 3.22687
3 9.60816 2.85259 6.41566
3 9.25652 3.26397 7.86548
3 8.74025 3.23209 5.17933
3 7.45201 3.90956 5.41875
3 9.73715 0.910329 4.70586
3 9.45164 13.7228 4.47515
3 10.1931 1.46459 6.09627
3 10.3057 0.473609 7.19823
3 8.78793 2.04937 4.19108
3 7.57234 1.64146 3.51187
3 7.87898 3.91694 8.05924
3 6.99566 4.16442 6.87051
3 7.26331 3.415 9.34068
3 5.7035 3.30312 9.42813
3 9.46838 2.24442 9.03525
3 9.94249 0.833815 8.69102
3 8.17529 2.33607 9.87127
3 7.55244 1.10234 10.4061
3 5.49964 4.00482 6.94714
3 4.84141 3.63841 8.20522
3 4.88681 3.70097 5.52042
3 3.74265 2.70923 5.42395
3 6.15786 3.59974 4.57868
3 6.22814 2.50245 3.55357
3 3.64342 2.61838 8.14458
3 3.21242 2.07231 6.75979
3 3.77407 1.64726 9.31367
3 3.54538 0.1255 9.05426
3 5.07604 2.04383 10.0311
3 6.04543 0.93476 10.374
3 2.86655 0.600127 6.56235
3 3.06479 13.9111 7.65577
3 3.24889 0.224568 5.09423
3 3.78876 13.1361 4.78237
3 3.7816 1.53366 4.36681
3 4.97375 1.42008 3.44085
3 3.57948 12.4984 7.36943
3 4.00121 12.1069 5.91275
3 4.46936 12.1229 8.61894
3 5.75767 11.4826 8.34887
3 4.47216 13.3425 9.61548
3 5.68027 13.7487 10.3079
3 5.36157 11.4338 5.69447
3 6.25088 11.2269 6.90247
3 5.97185 11.9268 4.38872
3 7.54434 12.068 4.31772
3 5.0381 13.0654 3.87846
3 5.67514 -0.000400742 3.41506
3 7.75713 11.3488 6.83952
3 8.45338 11.7536 5.58222
3 8.41966 11.6194 8.28553
3 9.49003 12.6647 8.34678
3 7.08785 11.7476 9.2233
3 7.01515 12.8548 10.2575
3 9.62956 12.7581 5.6618
3 10.0414 13.31 7.02176
3 8.15675 13.3777 3.73652
3 7.20394 0.169869 3.38674
3 9.44171 13.8416 9.39394
3 8.28661 13.9621 10.3636
4 1.53472 10.6169 5.57087
4 0.842036 10.9422 6.86153
4 0.652116 10.2868 4.34256
4 13.383 10.4586 4.40699
4 2.52904 8.57944 4.46006
4 2.75786 7.08015 4.72301
4 2.67713 9.58096 5.61313
4 3.09248 9.04256 6.96848
4 1.22451 8.99657 3.71877
4 0.225819 7.91244 3.3791
4 13.6582 11.1581 6.91458
4 12.755 10.9258 5.74695
4 13.1792 10.9263 8.37472