  LAMMPS description
 
     240   atoms
     360   bonds
       0   angles
       0   dihedrals
 
       1   atom types
       1   bond types
       0   angle types
       0   dihedral types
 
       0   14.400000     xlo xhi
       0   14.400000     ylo yhi
       0   14.400000     zlo zhi
  0.0000000      0.0000000      0.0000000     xy xz yz

  Masses

       1   12.010000

   Atoms

       1       1       1    0.000000    2.487200    2.600400   13.708500
       2       1       1    0.000000    2.078684    2.889066    0.646664
       3       1       1    0.000000    1.707151    3.148142   12.572600
       4       1       1    0.000000    0.552193    3.957167   12.821799
       5       1       1    0.000000    2.475554    0.975167   12.038870
       6       1       1    0.000000    2.044428   14.048850   11.730080
       7       1       1    0.000000    3.055625    1.284183   13.361246
       8       1       1    0.000000    3.143332    0.258904   -0.036218
       9       1       1    0.000000    1.705025    2.124167   11.510464
      10       1       1    0.000000    0.542154    1.899405   10.703008
      11       1       1    0.000000    0.892271    3.743287    0.891545
      12       1       1    0.000000    0.137092    4.316715   14.210848
      13       1       1    0.000000    0.206706    3.084281    2.010997
      14       1       1    0.000000   13.177954    3.048188    2.064665
      15       1       1    0.000000    2.159101    1.849938    1.675575
      16       1       1    0.000000    2.653806    0.549121    1.334275
      17       1       1    0.000000    1.000509    1.998083    2.599789
      18       1       1    0.000000    0.347440    0.859089    3.194364
      19       1       1    0.000000   13.039837    4.252118   -0.137186
      20       1       1    0.000000   12.377515    3.659220    0.996636
      21       1       1    0.000000   12.539557    3.865641   12.911871
      22       1       1    0.000000   11.399001    3.017768   12.740566
      23       1       1    0.000000   13.723048    3.631234   12.084470
      24       1       1    0.000000   13.716872    2.628611   11.060316
      25       1       1    0.000000   11.192192    2.769482    0.827339
      26       1       1    0.000000   10.683443    2.464762   13.919299
      27       1       1    0.000000   11.313939    1.691532    1.819185
      28       1       1    0.000000   10.894152    0.362043    1.503548
      29       1       1    0.000000   12.496088    1.908186    2.687947
      30       1       1    0.000000   13.243071    0.811754    3.245097
      31       1       1    0.000000   10.213077    1.084368   13.597440
      32       1       1    0.000000   10.304561   14.445759    0.190592
      33       1       1    0.000000   10.712451    0.790251   12.235082
      34       1       1    0.000000   11.208200   13.887287   11.897712
      35       1       1    0.000000   11.401292    1.982859   11.688319
      36       1       1    0.000000   12.519319    1.825826   10.803551
      37       1       1    0.000000   10.849886   13.105962   -0.153694
      38       1       1    0.000000   11.266583   12.822117   12.908296
      39       1       1    0.000000   11.648913   12.571737    0.977813
      40       1       1    0.000000   12.809470   11.769874    0.736613
      41       1       1    0.000000   11.661054   13.611552    2.027008
      42       1       1    0.000000   12.814346   13.836123    2.846512
      43       1       1    0.000000   12.475077   11.990994   12.667421
      44       1       1    0.000000   13.236967   11.419248   13.748536
      45       1       1    0.000000   13.159926   12.650854   11.550501
      46       1       1    0.000000    0.188245   12.687322   11.496190
      47       1       1    0.000000   12.365349   13.740951   10.974622
      48       1       1    0.000000   13.008325    0.480641   10.375044
      49       1       1    0.000000    0.337439   11.463267   13.694794
      50       1       1    0.000000    0.991312   12.066695   12.562366
      51       1       1    0.000000    0.811564   11.871915    0.649182
      52       1       1    0.000000    1.924734   12.755048    0.814462
      53       1       1    0.000000   14.032651   12.094230    1.483158
      54       1       1    0.000000   14.037957   13.103411    2.501227
      55       1       1    0.000000    2.148336   12.987702   12.732221
      56       1       1    0.000000    2.639523   13.303176   14.040635
      57       1       1    0.000000    0.862962   13.828221   10.863847
      58       1       1    0.000000    0.111211    0.523477   10.309636
      59       1       1    0.000000    1.944334   13.765701    1.875914
      60       1       1    0.000000    0.829991   13.914683    2.762693
      61       2       1    0.000000    8.252690   10.652281   12.695339
      62       2       1    0.000000    7.600794   11.339480   13.797066
      63       2       1    0.000000    7.420389   10.125290   11.572448
      64       2       1    0.000000    5.992654   10.216485   11.609594
      65       2       1    0.000000    9.184674    8.652878   11.693275
      66       2       1    0.000000    9.567022    7.289958   11.904294
      67       2       1    0.000000    9.439064    9.677844   12.715950
      68       2       1    0.000000   10.191423    9.349628   13.766232
      69       2       1    0.000000    8.028761    8.992463   10.862125
      70       2       1    0.000000    7.246700    7.961440   10.234145
      71       2       1    0.000000    6.061488   11.431512   -0.595672
      72       2       1    0.000000    5.309672   10.882002   12.717530
      73       2       1    0.000000    5.530652   11.152959    0.770779
      74       2       1    0.000000    4.383895   10.339643    1.005899
      75       2       1    0.000000    7.932397   11.246309    0.856132
      76       2       1    0.000000    8.867396   10.576054    1.573885
      77       2       1    0.000000    6.687195   10.901503    1.596331
      78       2       1    0.000000    6.681945    9.906489    2.648861
      79       2       1    0.000000    4.090442   10.067248   12.947763
      80       2       1    0.000000    3.633643    9.785306   -0.131527
      81       2       1    0.000000    4.018826    9.025350   11.933913
      82       2       1    0.000000    3.536127    7.730288   12.292775
      83       2       1    0.000000    5.160389    9.167315   11.000022
      84       2       1    0.000000    5.759247    8.026221   10.369204
      85       2       1    0.000000    3.068730    8.468496    0.223000
      86       2       1    0.000000    3.011222    7.435282   13.639145
      87       2       1    0.000000    3.644549    8.162252    1.540568
      88       2       1    0.000000    4.103026    6.850509    1.863314
      89       2       1    0.000000    4.370876    9.324934    2.071164
      90       2       1    0.000000    5.482976    9.127321    2.940474
      91       2       1    0.000000    3.522567    6.085600   13.972459
      92       2       1    0.000000    4.041372    5.787252    0.871382
      93       2       1    0.000000    4.232827    5.532572   12.808668
      94       2       1    0.000000    5.353985    4.668155   12.979631
      95       2       1    0.000000    4.212550    6.545932   11.752491
      96       2       1    0.000000    5.282852    6.688367   10.825744
      97       2       1    0.000000    5.244694    4.926173    1.043106
      98       2       1    0.000000    5.926362    4.357481   14.317604
      99       2       1    0.000000    6.012732    5.569179    2.112421
     100       2       1    0.000000    7.443095    5.614609    2.065842
     101       2       1    0.000000    5.264990    6.657975    2.755155
     102       2       1    0.000000    5.933769    7.767686    3.369896
     103       2       1    0.000000    7.465297    4.377024   14.242239
     104       2       1    0.000000    8.191302    5.043641    0.909029
     105       2       1    0.000000    7.742609    4.437922   12.764789
     106       2       1    0.000000    8.664574    5.079860   12.000667
     107       2       1    0.000000    6.465123    4.833689   12.075313
     108       2       1    0.000000    6.445824    5.835529   11.027365
     109       2       1    0.000000    9.402714    5.966334    0.841046
     110       2       1    0.000000   10.091861    6.276678   14.150298
     111       2       1    0.000000    9.285853    6.999936    1.872930
     112       2       1    0.000000    9.746399    8.344427    1.642262
     113       2       1    0.000000    8.140796    6.710708    2.748814
     114       2       1    0.000000    7.430980    7.769027    3.415850
     115       2       1    0.000000   10.183709    6.829000   13.010748
     116       2       1    0.000000   10.332161    8.792270   14.906365
     117       2       1    0.000000    8.831810    6.221433   11.278218
     118       2       1    0.000000    7.643118    6.564832   10.538497
     119       2       1    0.000000    9.042482    9.432260    2.282314
     120       2       1    0.000000    7.874549    9.139866    3.076371
     121       3       1    0.000000    9.844250    2.450149    6.726558
     122       3       1    0.000000    9.348337    2.706075    8.038496
     123       3       1    0.000000    9.133077    3.021394    5.563076
     124       3       1    0.000000    8.018068    3.900429    5.735297
     125       3       1    0.000000    9.854839    0.832614    5.017143
     126       3       1    0.000000    9.365482   13.936241    4.614497
     127       3       1    0.000000   10.367156    1.118242    6.403774
     128       3       1    0.000000   10.318823    0.033853    7.403702
     129       3       1    0.000000    9.142710    2.023381    4.489330
     130       3       1    0.000000    8.031430    1.886355    3.591316
     131       3       1    0.000000    8.201635    3.636650    8.211771
     132       3       1    0.000000    7.550029    4.282672    7.098532
     133       3       1    0.000000    7.404507    2.983570    9.255507
     134       3       1    0.000000    5.982327    3.028631    9.208153
     135       3       1    0.000000    9.253973    1.592156    8.999156
     136       3       1    0.000000    9.690959    0.248187    8.680731
     137       3       1    0.000000    8.079140    1.839019    9.864831
     138       3       1    0.000000    7.333667    0.768706   10.452803
     139       3       1    0.000000    6.044820    4.333706    7.044376
     140       3       1    0.000000    5.300209    3.722748    8.111167
     141       3       1    0.000000    5.616806    3.989770    5.652224
     142       3       1    0.000000    4.468880    3.167043    5.406629
     143       3       1    0.000000    6.838725    3.686793    4.894289
     144       3       1    0.000000    6.837760    2.699969    3.850804
     145       3       1    0.000000    4.117597    2.866847    7.869996
     146       3       1    0.000000    3.695978    2.599272    6.534170
     147       3       1    0.000000    4.030391    1.825069    8.890686
     148       3       1    0.000000    3.530647    0.530066    8.546621
     149       3       1    0.000000    5.187257    1.957607    9.812218
     150       3       1    0.000000    5.834409    0.819422   10.408227
     151       3       1    0.000000    3.109824    1.293491    6.182811
     152       3       1    0.000000    3.029541   14.659662    7.177801
     153       3       1    0.000000    3.684112    1.003185    4.853101
     154       3       1    0.000000    4.125680   14.079570    4.544808
     155       3       1    0.000000    4.454698    2.159691    4.330536
     156       3       1    0.000000    5.611049    1.955717    3.506774
     157       3       1    0.000000    3.545771   13.311134    6.854605
     158       3       1    0.000000    4.049148   13.016902    5.548878
     159       3       1    0.000000    4.249372   12.738226    8.018540
     160       3       1    0.000000    5.353812   11.847003    7.856324
     161       3       1    0.000000    4.238419   13.742668    9.085085
     162       3       1    0.000000    5.349668   13.875644    9.981790
     163       3       1    0.000000    5.222809   12.117702    5.397160
     164       3       1    0.000000    5.879218   11.489706    6.510454
     165       3       1    0.000000    6.008247   12.778318    4.358333
     166       3       1    0.000000    7.429563   12.746189    4.414004
     167       3       1    0.000000    5.316100   13.883773    3.688591
     168       3       1    0.000000    6.043731   14.981365    3.111071
     169       3       1    0.000000    7.403033   11.434122    6.585121
     170       3       1    0.000000    8.137929   12.050075    5.519787
     171       3       1    0.000000    7.761188   11.612634    8.025842
     172       3       1    0.000000    8.740097   12.345313    8.622497
     173       3       1    0.000000    6.502026   12.001735    8.727199
     174       3       1    0.000000    6.535038   13.034342    9.742413
     175       3       1    0.000000    9.370034   12.854688    5.609667
     176       3       1    0.000000   10.030731   13.314588    6.688449
     177       3       1    0.000000    8.189865   13.810571    3.750607
     178       3       1    0.000000    7.542213    0.543108    3.155255
     179       3       1    0.000000    8.962571   13.532195    9.265210
     180       3       1    0.000000    7.769683   13.800458   10.086886
     181       4       1    0.000000    0.998308   10.964656    5.563424
     182       4       1    0.000000    0.258313   11.522305    6.666185
     183       4       1    0.000000    0.310488   10.351785    4.418511
     184       4       1    0.000000   13.284761   10.329576    4.379799
     185       4       1    0.000000    2.189096    9.043989    4.751163
     186       4       1    0.000000    2.642710    7.727735    5.058616
     187       4       1    0.000000    2.156387   10.066936    5.788093
     188       4       1    0.000000    2.571546    9.741998    7.112248
     189       4       1    0.000000    1.060547    9.244756    3.812038
     190       4       1    0.000000    0.392742    8.129727    3.191391
     191       4       1    0.000000   13.164671   11.497877    6.621297
     192       4       1    0.000000   12.509956   10.922119    5.476408
     193       4       1    0.000000   12.658345   11.077952    7.961278
     194       4       1    0.000000   11.498258   10.258234    8.103326
     195       4       1    0.000000    0.657210   11.098697    8.039284
     196       4       1    0.000000    1.802829   10.278894    8.255331
     197       4       1    0.000000   13.833383   10.751800    8.783197
     198       4       1    0.000000   13.805267    9.724092    9.808876
     199       4       1    0.000000   11.348769   10.014560    5.635111
     200       4       1    0.000000   10.801643    9.713033    6.917524
     201       4       1    0.000000   11.449085    8.973653    4.632598
     202       4       1    0.000000   10.978286    7.659630    4.892688
     203       4       1    0.000000   12.595016    9.203168    3.739824
     204       4       1    0.000000   13.297171    8.108320    3.133007
     205       4       1    0.000000   10.267541    8.355297    7.186985
     206       4       1    0.000000   10.339438    7.340017    6.172895
     207       4       1    0.000000   10.759091    8.018897    8.538564
     208       4       1    0.000000   11.198486    6.670832    8.812063
     209       4       1    0.000000   11.464436    9.215447    9.128380
     210       4       1    0.000000   12.590954    8.994167   10.036606
     211       4       1    0.000000   10.864088    5.984732    6.460154
     212       4       1    0.000000   11.278825    5.657906    7.781662
     213       4       1    0.000000   11.639177    5.441731    5.321529
     214       4       1    0.000000   12.778906    4.607011    5.560097
     215       4       1    0.000000   11.689097    6.509280    4.308593
     216       4       1    0.000000   12.834693    6.726447    3.480101
     217       4       1    0.000000   12.465376    4.803752    8.033409
     218       4       1    0.000000   13.200203    4.218657    6.943140
     219       4       1    0.000000   13.162244    5.432227    9.184675
     220       4       1    0.000000    0.184613    5.435024    9.246960
     221       4       1    0.000000   12.321748    6.465155    9.777797
     222       4       1    0.000000   12.636306    7.656894   10.326134
     223       4       1    0.000000    0.299066    4.234880    6.998669
     224       4       1    0.000000    0.958833    4.817851    8.138206
     225       4       1    0.000000    0.785911    4.652613    5.649786
     226       4       1    0.000000    1.912315    5.517599    5.496802
     227       4       1    0.000000   14.009775    4.932280    4.825780
     228       4       1    0.000000   14.036076    5.950783    3.813344
     229       4       1    0.000000    2.140516    5.699634    7.967854
     230       4       1    0.000000    2.630123    6.042674    6.673897
     231       4       1    0.000000    2.122397    6.704159    9.005391
     232       4       1    0.000000    2.524507    8.059070    8.732934
     233       4       1    0.000000    0.966041    6.477841    9.923213
     234       4       1    0.000000    0.592212    7.669617   10.443079
     235       4       1    0.000000    3.158529    7.397203    6.399706
     236       4       1    0.000000    3.106470    8.402478    7.421084
     237       4       1    0.000000    1.927948    6.572136    4.484708
     238       4       1    0.000000    0.832746    6.761595    3.589515
     239       4       1    0.000000    1.775406    9.238491    9.277785
     240       4       1    0.000000    0.610732    9.006343   10.127586

   Bonds

       1       1       2       1
       2       1       3       1
       3       1       4       3
       4       1       6       5
       5       1       7       1
       6       1       7       5
       7       1       8       7
       8       1       9       3
       9       1       9       5
      10       1      10       9
      11       1      11       2
      12       1      12       4
      13       1      12      11
      14       1      13      11
      15       1      14      13
      16       1      15       2
      17       1      16       8
      18       1      16      15
      19       1      17      13
      20       1      17      15
      21       1      18      17
      22       1      19      12
      23       1      20      14
      24       1      20      19
      25       1      21      19
      26       1      22      21
      27       1      23       4
      28       1      23      21
      29       1      24      10
      30       1      24      23
      31       1      25      20
      32       1      26      22
      33       1      26      25
      34       1      27      25
      35       1      28      27
      36       1      29      14
      37       1      29      27
      38       1      30      18
      39       1      30      29
      40       1      31      26
      41       1      32      28
      42       1      32      31
      43       1      33      31
      44       1      34      33
      45       1      35      22
      46       1      35      33
      47       1      36      24
      48       1      36      35
      49       1      37      32
      50       1      38      34
      51       1      38      37
      52       1      39      37
      53       1      40      39
      54       1      41      28
      55       1      41      39
      56       1      42      30
      57       1      42      41
      58       1      43      38
      59       1      44      40
      60       1      44      43
      61       1      45      43
      62       1      46      45
      63       1      47      34
      64       1      47      45
      65       1      48      36
      66       1      48      47
      67       1      49      44
      68       1      50      46
      69       1      50      49
      70       1      51      49
      71       1      52      51
      72       1      53      40
      73       1      53      51
      74       1      54      42
      75       1      54      53
      76       1      55       6
      77       1      55      50
      78       1      56       8
      79       1      56      52
      80       1      56      55
      81       1      57       6
      82       1      57      46
      83       1      58      10
      84       1      58      48
      85       1      58      57
      86       1      59      16
      87       1      59      52
      88       1      60      18
      89       1      60      54
      90       1      60      59
      91       1      62      61
      92       1      63      61
      93       1      64      63
      94       1      66      65
      95       1      67      61
      96       1      67      65
      97       1      68      67
      98       1      69      63
      99       1      69      65
     100       1      70      69
     101       1      71      62
     102       1      72      64
     103       1      72      71
     104       1      73      71
     105       1      74      73
     106       1      75      62
     107       1      76      68
     108       1      76      75
     109       1      77      73
     110       1      77      75
     111       1      78      77
     112       1      79      72
     113       1      80      74
     114       1      80      79
     115       1      81      79
     116       1      82      81
     117       1      83      64
     118       1      83      81
     119       1      84      70
     120       1      84      83
     121       1      85      80
     122       1      86      82
     123       1      86      85
     124       1      87      85
     125       1      88      87
     126       1      89      74
     127       1      89      87
     128       1      90      78
     129       1      90      89
     130       1      91      86
     131       1      92      88
     132       1      92      91
     133       1      93      91
     134       1      94      93
     135       1      95      82
     136       1      95      93
     137       1      96      84
     138       1      96      95
     139       1      97      92
     140       1      98      94
     141       1      98      97
     142       1      99      97
     143       1     100      99
     144       1     101      88
     145       1     101      99
     146       1     102      90
     147       1     102     101
     148       1     103      98
     149       1     104     100
     150       1     104     103
     151       1     105     103
     152       1     106     105
     153       1     107      94
     154       1     107     105
     155       1     108      96
     156       1     108     107
     157       1     109     104
     158       1     110     106
     159       1     110     109
     160       1     111     109
     161       1     112     111
     162       1     113     100
     163       1     113     111
     164       1     114     102
     165       1     114     113
     166       1     115      66
     167       1     115     110
     168       1     116      68
     169       1     116     112
     170       1     116     115
     171       1     117      66
     172       1     117     106
     173       1     118      70
     174       1     118     108
     175       1     118     117
     176       1     119      76
     177       1     119     112
     178       1     120      78
     179       1     120     114
     180       1     120     119
     181       1     122     121
     182       1     123     121
     183       1     124     123
     184       1     126     125
     185       1     127     121
     186       1     127     125
     187       1     128     127
     188       1     129     123
     189       1     129     125
     190       1     130     129
     191       1     131     122
     192       1     132     124
     193       1     132     131
     194       1     133     131
     195       1     134     133
     196       1     135     122
     197       1     136     128
     198       1     136     135
     199       1     137     133
     200       1     137     135
     201       1     138     137
     202       1     139     132
     203       1     140     134
     204       1     140     139
     205       1     141     139
     206       1     142     141
     207       1     143     124
     208       1     143     141
     209       1     144     130
     210       1     144     143
     211       1     145     140
     212       1     146     142
     213       1     146     145
     214       1     147     145
     215       1     148     147
     216       1     149     134
     217       1     149     147
     218       1     150     138
     219       1     150     149
     220       1     151     146
     221       1     152     148
     222       1     152     151
     223       1     153     151
     224       1     154     153
     225       1     155     142
     226       1     155     153
     227       1     156     144
     228       1     156     155
     229       1     157     152
     230       1     158     154
     231       1     158     157
     232       1     159     157
     233       1     160     159
     234       1     161     148
     235       1     161     159
     236       1     162     150
     237       1     162     161
     238       1     163     158
     239       1     164     160
     240       1     164     163
     241       1     165     163
     242       1     166     165
     243       1     167     154
     244       1     167     165
     245       1     168     156
     246       1     168     167
     247       1     169     164
     248       1     170     166
     249       1     170     169
     250       1     171     169
     251       1     172     171
     252       1     173     160
     253       1     173     171
     254       1     174     162
     255       1     174     173
     256       1     175     126
     257       1     175     170
     258       1     176     128
     259       1     176     172
     260       1     176     175
     261       1     177     126
     262       1     177     166
     263       1     178     130
     264       1     178     168
     265       1     178     177
     266       1     179     136
     267       1     179     172
     268       1     180     138
     269       1     180     174
     270       1     180     179
     271       1     182     181
     272       1     183     181
     273       1     184     183
     274       1     186     185
     275       1     187     181
     276       1     187     185
     277       1     188     187
     278       1     189     183
     279       1     189     185
     280       1     190     189
     281       1     191     182
     282       1     192     184
     283       1     192     191
     284       1     193     191
     285       1     194     193
     286       1     195     182
     287       1     196     188
     288       1     196     195
     289       1     197     193
     290       1     197     195
     291       1     198     197
     292       1     199     192
     293       1     200     194
     294       1     200     199
     295       1     201     199
     296       1     202     201
     297       1     203     184
     298       1     203     201
     299       1     204     190
     300       1     204     203
     301       1     205     200
     302       1     206     202
     303       1     206     205
     304       1     207     205
     305       1     208     207
     306       1     209     194
     307       1     209     207
     308       1     210     198
     309       1     210     209
     310       1     211     206
     311       1     212     208
     312       1     212     211
     313       1     213     211
     314       1     214     213
     315       1     215     202
     316       1     215     213
     317       1     216     204
     318       1     216     215
     319       1     217     212
     320       1     218     214
     321       1     218     217
     322       1     219     217
     323       1     220     219
     324       1     221     208
     325       1     221     219
     326       1     222     210
     327       1     222     221
     328       1     223     218
     329       1     224     220
     330       1     224     223
     331       1     225     223
     332       1     226     225
     333       1     227     214
     334       1     227     225
     335       1     228     216
     336       1     228     227
     337       1     229     224
     338       1     230     226
     339       1     230     229
     340       1     231     229
     341       1     232     231
     342       1     233     220
     343       1     233     231
     344       1     234     222
     345       1     234     233
     346       1     235     186
     347       1     235     230
     348       1     236     188
     349       1     236     232
     350       1     236     235
     351       1     237     186
     352       1     237     226
     353       1     238     190
     354       1     238     228
     355       1     238     237
     356       1     239     196
     357       1     239     232
     358       1     240     198
     359       1     240     234
     360       1     240     239

   Angles


   Dihedrals


