  LAMMPS description
 
     240   atoms
     360   bonds
       0   angles
       0   dihedrals
 
       1   atom types
       1   bond types
       0   angle types
       0   dihedral types
 
       0   14.000000     xlo xhi
       0   14.000000     ylo yhi
       0   14.000000     zlo zhi
  0.0000000      0.0000000      0.0000000     xy xz yz

  Masses

       1   12.010000

   Atoms

       1       1       1    0.000000    2.340000    2.600000   -0.594000
       2       1       1    0.000000    1.932411    2.933365    0.705451
       3       1       1    0.000000    1.580368    3.083897   -1.730590
       4       1       1    0.000000    0.399467    3.822030   -1.481692
       5       1       1    0.000000    2.449423    0.973509   -2.084718
       6       1       1    0.000000    2.113944   -0.374888   -2.286676
       7       1       1    0.000000    3.086831    1.378125   -0.849817
       8       1       1    0.000000    3.336869    0.449838    0.188256
       9       1       1    0.000000    1.647797    2.015067   -2.727119
      10       1       1    0.000000    0.534648    1.640854   -3.528780
      11       1       1    0.000000    0.772569    3.781382    0.928341
      12       1       1    0.000000   -0.011861    4.296502   -0.140594
      13       1       1    0.000000    0.205590    3.098199    2.075599
      14       1       1    0.000000   -1.191131    2.932479    2.155623
      15       1       1    0.000000    2.190146    2.036538    1.792432
      16       1       1    0.000000    2.757570    0.779314    1.492653
      17       1       1    0.000000    1.084115    2.154037    2.751463
      18       1       1    0.000000    0.537181    1.032677    3.447316
      19       1       1    0.000000   -1.479049    4.079470   -0.048174
      20       1       1    0.000000   -2.037580    3.450969    1.104819
      21       1       1    0.000000   -1.943940    3.505906   -1.329556
      22       1       1    0.000000   -2.986758    2.556221   -1.420824
      23       1       1    0.000000   -0.777123    3.286697   -2.133266
      24       1       1    0.000000   -0.714939    2.260819   -3.105707
      25       1       1    0.000000   -3.095945    2.426679    1.014125
      26       1       1    0.000000   -3.653719    2.025808   -0.229680
      27       1       1    0.000000   -2.847967    1.455370    2.036971
      28       1       1    0.000000   -3.183467    0.107009    1.834931
      29       1       1    0.000000   -1.743668    1.823876    2.914857
      30       1       1    0.000000   -0.940122    0.861433    3.595160
      31       1       1    0.000000   -4.070896    0.630736   -0.438029
      32       1       1    0.000000   -3.820995   -0.297496    0.600034
      33       1       1    0.000000   -3.491481    0.301169   -1.742379
      34       1       1    0.000000   -2.924158   -0.956061   -2.042290
      35       1       1    0.000000   -2.879017    1.464294   -2.351209
      36       1       1    0.000000   -1.797381    1.346676   -3.247208
      37       1       1    0.000000   -3.074331   -1.519176    0.343934
      38       1       1    0.000000   -2.666583   -1.852912   -0.955355
      39       1       1    0.000000   -2.314461   -2.003263    1.480564
      40       1       1    0.000000   -1.133555   -2.741505    1.231874
      41       1       1    0.000000   -2.381787   -0.934560    2.477249
      42       1       1    0.000000   -1.268645   -0.560435    3.278976
      43       1       1    0.000000   -1.506633   -2.700962   -1.178069
      44       1       1    0.000000   -0.722163   -3.216054   -0.109154
      45       1       1    0.000000   -0.939588   -2.017723   -2.325292
      46       1       1    0.000000    0.457137   -1.852032   -2.405315
      47       1       1    0.000000   -1.818078   -1.073571   -3.001219
      48       1       1    0.000000   -1.271165    0.047764   -3.697082
      49       1       1    0.000000    0.745045   -2.999034   -0.201554
      50       1       1    0.000000    1.303609   -2.370517   -1.354536
      51       1       1    0.000000    1.209945   -2.425442    1.079818
      52       1       1    0.000000    2.252788   -1.475762    1.171085
      53       1       1    0.000000    0.043093   -2.206277    1.883518
      54       1       1    0.000000   -0.019041   -1.180395    2.855956
      55       1       1    0.000000    2.361980   -1.346219   -1.263844
      56       1       1    0.000000    2.919772   -0.945305   -0.020050
      57       1       1    0.000000    1.009665   -0.743425   -3.164548
      58       1       1    0.000000    0.206134    0.218988   -3.844909
      59       1       1    0.000000    2.145082   -0.383830    2.101480
      60       1       1    0.000000    1.063413   -0.266236    2.997450
      61       2       1    0.000000    8.303722   10.452054   -1.350844
      62       2       1    0.000000    7.746103   11.077979   -0.196041
      63       2       1    0.000000    7.456550    9.936166   -2.402128
      64       2       1    0.000000    6.059746   10.101562   -2.319857
      65       2       1    0.000000    9.113071    8.458914   -2.287710
      66       2       1    0.000000    9.446399    7.109765   -2.086877
      67       2       1    0.000000    9.362310    9.427880   -1.263013
      68       2       1    0.000000    9.920885    9.024513   -0.020288
      69       2       1    0.000000    8.008520    8.828998   -3.164760
      70       2       1    0.000000    7.203705    7.867862   -3.845728
      71       2       1    0.000000    6.279325   11.295340   -0.102355
      72       2       1    0.000000    5.493784   10.783323   -1.171543
      73       2       1    0.000000    5.869453   10.817734    1.237515
      74       2       1    0.000000    4.687821   10.080969    1.486594
      75       2       1    0.000000    8.212347   10.502949    1.084205
      76       2       1    0.000000    9.254682    9.552414    1.172563
      77       2       1    0.000000    7.046289   10.283012    1.889067
      78       2       1    0.000000    6.984292    9.256025    2.860458
      79       2       1    0.000000    4.333441    9.935438   -0.949256
      80       2       1    0.000000    3.926701    9.599509    0.349816
      81       2       1    0.000000    4.073927    9.041333   -2.038224
      82       2       1    0.000000    3.507259    7.783767   -1.739214
      83       2       1    0.000000    5.180106    9.159777   -2.997083
      84       2       1    0.000000    5.726613    8.039466   -3.694880
      85       2       1    0.000000    3.180189    8.377595    0.604502
      86       2       1    0.000000    2.928807    7.451545   -0.435037
      87       2       1    0.000000    3.819512    7.970473    1.837430
      88       2       1    0.000000    4.152793    6.621336    2.038313
      89       2       1    0.000000    4.621451    9.010736    2.481936
      90       2       1    0.000000    5.734508    8.635486    3.283459
      91       2       1    0.000000    3.345059    6.055817   -0.229095
      92       2       1    0.000000    3.903555    5.652393    1.013624
      93       2       1    0.000000    4.011282    5.527984   -1.421916
      94       2       1    0.000000    5.053574    4.577433   -1.333542
      95       2       1    0.000000    4.119191    6.621681   -2.350399
      96       2       1    0.000000    5.200206    6.740312   -3.246657
      97       2       1    0.000000    4.962088    4.628166    1.101465
      98       2       1    0.000000    5.519736    4.002277   -0.053335
      99       2       1    0.000000    5.809257    5.144126    2.152692
     100       2       1    0.000000    7.206049    4.978777    2.070351
     101       2       1    0.000000    5.257308    6.251277    2.915370
     102       2       1    0.000000    6.062122    7.212415    3.596339
     103       2       1    0.000000    6.986509    3.784865   -0.147051
     104       2       1    0.000000    7.772045    4.296909    0.922121
     105       2       1    0.000000    7.396375    4.262525   -1.486909
     106       2       1    0.000000    8.578013    4.999292   -1.736004
     107       2       1    0.000000    6.219571    4.797318   -2.138432
     108       2       1    0.000000    6.281553    5.824336   -3.109769
     109       2       1    0.000000    8.932381    5.144792    0.699845
     110       2       1    0.000000    9.339128    5.480738   -0.599221
     111       2       1    0.000000    9.191866    6.038943    1.788769
     112       2       1    0.000000    9.758491    7.296512    1.489745
     113       2       1    0.000000    8.085674    5.920550    2.747570
     114       2       1    0.000000    7.539203    7.040835    3.445399
     115       2       1    0.000000   10.085650    6.702648   -0.853912
     116       2       1    0.000000   10.337014    7.628722    0.185616
     117       2       1    0.000000    8.644435    6.069516   -2.731372
     118       2       1    0.000000    7.531332    6.444836   -3.532792
     119       2       1    0.000000    9.146622    8.458617    2.100945
     120       2       1    0.000000    8.065610    8.339989    2.997220
     121       3       1    0.000000    9.329822    2.608571    6.400016
     122       3       1    0.000000    8.920769    2.947660    7.697396
     123       3       1    0.000000    8.571144    3.085373    5.260025
     124       3       1    0.000000    7.385822    3.817063    5.505353
     125       3       1    0.000000    9.449206    0.977316    4.915655
     126       3       1    0.000000    9.120722   -0.373589    4.719432
     127       3       1    0.000000   10.082077    1.389301    6.150136
     128       3       1    0.000000   10.337397    0.467716    7.192804
     129       3       1    0.000000    8.644161    2.013030    4.267071
     130       3       1    0.000000    7.533796    1.631132    3.464212
     131       3       1    0.000000    7.757002    3.791266    7.914827
     132       3       1    0.000000    6.971650    4.297101    6.842783
     133       3       1    0.000000    7.191764    3.109457    9.063466
     134       3       1    0.000000    5.795291    2.940866    9.145644
     135       3       1    0.000000    9.183365    2.058070    8.789770
     136       3       1    0.000000    9.754494    0.801912    8.494551
     137       3       1    0.000000    8.074511    2.173595    9.745380
     138       3       1    0.000000    7.531303    1.053338   10.445515
     139       3       1    0.000000    5.506243    4.072022    6.933974
     140       3       1    0.000000    4.949263    3.446885    8.089312
     141       3       1    0.000000    5.042996    3.493486    5.654536
     142       3       1    0.000000    4.002683    2.540507    5.566272
     143       3       1    0.000000    6.212283    3.274867    4.853585
     144       3       1    0.000000    6.280503    2.247964    3.882926
     145       3       1    0.000000    3.894006    2.418979    8.001740
     146       3       1    0.000000    3.335784    2.012325    6.759426
     147       3       1    0.000000    4.145261    1.454478    9.030564
     148       3       1    0.000000    3.816795    0.103531    8.834587
     149       3       1    0.000000    5.246899    1.832333    9.908390
     150       3       1    0.000000    6.054513    0.876097   10.593461
     151       3       1    0.000000    2.928528    0.613043    6.557350
     152       3       1    0.000000    3.183785   -0.308471    7.600139
     153       3       1    0.000000    3.511515    0.278918    5.255665
     154       3       1    0.000000    4.082642   -0.977312    4.960610
     155       3       1    0.000000    4.121898    1.441832    4.645132
     156       3       1    0.000000    5.203983    1.325841    3.749453
     157       3       1    0.000000    3.936140   -1.527745    7.350516
     158       3       1    0.000000    4.345220   -1.866807    6.053118
     159       3       1    0.000000    4.694882   -2.004386    8.490591
     160       3       1    0.000000    5.880321   -2.736004    8.245434
     161       3       1    0.000000    4.621889   -0.931970    9.483467
     162       3       1    0.000000    5.732174   -0.550150   10.286546
     163       3       1    0.000000    5.509087   -2.710269    5.835755
     164       3       1    0.000000    6.294471   -3.215846    6.907900
     165       3       1    0.000000    6.074173   -2.028641    4.686875
     166       3       1    0.000000    7.470634   -1.860010    4.604490
     167       3       1    0.000000    5.191416   -1.092770    4.004905
     168       3       1    0.000000    5.734574    0.027668    3.304941
     169       3       1    0.000000    7.759803   -2.990803    6.816360
     170       3       1    0.000000    8.316756   -2.366106    5.660753
     171       3       1    0.000000    8.222868   -2.412202    8.095825
     172       3       1    0.000000    9.263203   -1.459336    8.183781
     173       3       1    0.000000    7.053853   -2.193965    8.897288
     174       3       1    0.000000    6.985592   -1.167016    9.868139
     175       3       1    0.000000    9.372173   -1.338278    5.748111
     176       3       1    0.000000    9.930181   -0.931538    6.990516
     177       3       1    0.000000    8.018959   -0.751384    3.841779
     178       3       1    0.000000    7.211373    0.205048    3.156967
     179       3       1    0.000000    9.144016   -0.360867    9.105213
     180       3       1    0.000000    8.062078   -0.244871   10.001122
     181       4       1    0.000000    1.315687   10.442478    5.640524
     182       4       1    0.000000    0.765269   11.067473    6.799085
     183       4       1    0.000000    0.459513    9.933562    4.593483
     184       4       1    0.000000   -0.936032   10.106789    4.684166
     185       4       1    0.000000    2.105033    8.445020    4.701918
     186       4       1    0.000000    2.431069    7.093949    4.899671
     187       4       1    0.000000    2.371436    9.414023    5.723052
     188       4       1    0.000000    2.935326    9.006698    6.962822
     189       4       1    0.000000    1.000330    8.822491    3.829106
     190       4       1    0.000000    0.187017    7.866480    3.151746
     191       4       1    0.000000   -0.698558   11.297411    6.901262
     192       4       1    0.000000   -1.492087   10.790806    5.835915
     193       4       1    0.000000   -1.104819   10.822940    8.243483
     194       4       1    0.000000   -2.290713   10.094225    8.499092
     195       4       1    0.000000    1.234112   10.488672    8.075934
     196       4       1    0.000000    2.273781    9.534610    8.158476
     197       4       1    0.000000    0.072408   10.279694    8.888892
     198       4       1    0.000000    0.009234    9.253891    9.861109
     199       4       1    0.000000   -2.654699    9.948808    6.063818
     200       4       1    0.000000   -3.057086    9.615339    7.364841
     201       4       1    0.000000   -2.929536    9.059150    4.973973
     202       4       1    0.000000   -3.503803    7.805225    5.275087
     203       4       1    0.000000   -1.825435    9.171498    4.011173
     204       4       1    0.000000   -1.287390    8.047464    3.313238
     205       4       1    0.000000   -3.808477    8.397066    7.621436
     206       4       1    0.000000   -4.075620    7.473797    6.583134
     207       4       1    0.000000   -3.165336    7.986656    8.850818
     208       4       1    0.000000   -2.839152    6.635603    9.048534
     209       4       1    0.000000   -2.358129    9.022845    9.495175
     210       4       1    0.000000   -1.242366    8.639835   10.290345
     211       4       1    0.000000   -3.669204    6.073978    6.787607
     212       4       1    0.000000   -3.105355    5.666639    8.027346
     213       4       1    0.000000   -3.007687    5.546040    5.592004
     214       4       1    0.000000   -1.968116    4.591911    5.674499
     215       4       1    0.000000   -2.896611    6.639929    4.664799
     216       4       1    0.000000   -1.817886    6.752016    3.764988
     217       4       1    0.000000   -2.049662    4.638140    8.109853
     218       4       1    0.000000   -1.499291    4.013088    6.951327
     219       4       1    0.000000   -1.193525    5.147014    9.156915
     220       4       1    0.000000    0.202005    4.973713    9.066259
     221       4       1    0.000000   -1.734403    6.258072    9.921258
     222       4       1    0.000000   -0.921100    7.214082   10.598606
     223       4       1    0.000000   -0.035493    3.782981    6.849174
     224       4       1    0.000000    0.758030    4.289541    7.914564
     225       4       1    0.000000    0.370637    4.257533    5.506927
     226       4       1    0.000000    1.556391    4.986473    5.251438
     227       4       1    0.000000   -0.806524    4.800765    4.861406
     228       4       1    0.000000   -0.743363    5.826567    3.889162
     229       4       1    0.000000    1.920544    5.131691    7.686720
     230       4       1    0.000000    2.322707    5.465336    6.385698
     231       4       1    0.000000    2.195502    6.021341    8.776515
     232       4       1    0.000000    2.769740    7.275279    8.475360
     233       4       1    0.000000    1.091378    5.909016    9.739258
     234       4       1    0.000000    0.553303    7.033066   10.437125
     235       4       1    0.000000    3.074114    6.683566    6.129074
     236       4       1    0.000000    3.341491    7.606798    7.167325
     237       4       1    0.000000    1.623876    6.057768    4.255306
     238       4       1    0.000000    0.508215    6.440708    3.459977
     239       4       1    0.000000    2.162579    8.440622    9.085600
     240       4       1    0.000000    1.083797    8.328502    9.985339

   Bonds


   Angles


   Dihedrals


