********************************************************************************
*                       GENERAL UTILITY LATTICE PROGRAM                        *
*                                 Julian Gale                                  *
*                      Nanochemistry Research Institute                        *
*                           Department of Chemistry                            *
*                    Curtin University, Western Australia                      *
********************************************************************************
* Version = 4.1.0 * Last modified =  21st August 2013                          *
********************************************************************************
*  optimise     - perform optimisation run                                     *
*  phonon       - calculate phonons for final geometry                         *
*  thermal      - calculate thermal conductivity for final geometry            *
*  nomodcoord   - do not mod input coordinates                                 *
*  molecule     - molecule option activated, Coulomb subtract within molecule  *
*  compare      - compare initial and final structures                         *
*  broaden_dos  - broaden density of states curves                             *
********************************************************************************

  Job Started  at 20:08.24 15th September  2013                               

  Number of CPUs =     1


  Total number of configurations input =   1

********************************************************************************
*  Input for Configuration =   1                                               *
********************************************************************************

  Formula = C240                                                        

  Number of irreducible atoms/shells =     240


  Total number atoms/shells =     240

  Dimensionality = 3               :  Bulk   



  Cartesian lattice vectors (Angstroms) :

       14.400000    0.000000    0.000000
        0.000000   14.400000    0.000000
        0.000000    0.000000   14.400000

  Cell parameters (Angstroms/Degrees):

  a =      14.4000    alpha =  90.0000
  b =      14.4000    beta  =  90.0000
  c =      14.4000    gamma =  90.0000

  Initial cell volume =        2985.984000 Angs**3

  Temperature of configuration =  300.0     K 

  Pressure of configuration =         0.000 GPa 

  Fractional coordinates of asymmetric unit :

--------------------------------------------------------------------------------
   No.  Atomic       x           y          z         Charge      Occupancy
        Label      (Frac)      (Frac)     (Frac)        (e)         (Frac)  
--------------------------------------------------------------------------------
      1 C1    c    0.172722    0.180583    0.951979     0.00000    1.000000    
      2 C1    c    0.147653 *  0.203910 *  0.057014 *   0.00000    1.000000    
      3 C1    c    0.114965 *  0.216000 *  0.873653 *   0.00000    1.000000    
      4 C1    c    0.033514 *  0.270479 *  0.891590 *   0.00000    1.000000    
      5 C1    c    0.171729 *  0.062167 *  0.836785 *   0.00000    1.000000    
      6 C1    c    0.149063 *  0.959757 *  0.815042 *   0.00000    1.000000    
      7 C1    c    0.207806 *  0.086424 *  0.929958 *   0.00000    1.000000    
      8 C1    c    0.221375 *  0.017618 *  0.007660 *   0.00000    1.000000    
      9 C1    c    0.118042 *  0.141646 *  0.798896 *   0.00000    1.000000    
     10 C1    c    0.035583 *  0.123625 *  0.744812 *   0.00000    1.000000    
     11 C1    c    0.059792 *  0.254576 *  0.076264 *   0.00000    1.000000    
     12 C1    c    0.002694 *  0.289958 *  0.993181 *   0.00000    1.000000    
     13 C1    c    0.015389 *  0.215590 *  0.161007 *   0.00000    1.000000    
     14 C1    c    0.907625 *  0.209361 *  0.170382 *   0.00000    1.000000    
     15 C1    c    0.161431 *  0.131146 *  0.132778 *   0.00000    1.000000    
     16 C1    c    0.198146 *  0.038826 *  0.107785 *   0.00000    1.000000    
     17 C1    c    0.073549 *  0.137792 *  0.191653 *   0.00000    1.000000    
     18 C1    c    0.031403 *  0.053937 *  0.227938 *   0.00000    1.000000    
     19 C1    c    0.893340 *  0.278500 *  0.005438 *   0.00000    1.000000    
     20 C1    c    0.848743 *  0.240340 *  0.088097 *   0.00000    1.000000    
     21 C1    c    0.857986 *  0.253104 *  0.905396 *   0.00000    1.000000    
     22 C1    c    0.781431 *  0.188542 *  0.896632 *   0.00000    1.000000    
     23 C1    c    0.938931 *  0.249590 *  0.838465 *   0.00000    1.000000    
     24 C1    c    0.940479 *  0.177889 *  0.766444 *   0.00000    1.000000    
     25 C1    c    0.765514 *  0.178479 *  0.080139 *   0.00000    1.000000    
     26 C1    c    0.731722 *  0.153111 *  0.980354 *   0.00000    1.000000    
     27 C1    c    0.779799 *  0.103618 *  0.150951 *   0.00000    1.000000    
     28 C1    c    0.761201 *  0.009333 *  0.127062 *   0.00000    1.000000    
     29 C1    c    0.863778 *  0.125438 *  0.210326 *   0.00000    1.000000    
     30 C1    c    0.922104 *  0.046611 *  0.240382 *   0.00000    1.000000    
     31 C1    c    0.708535 *  0.052285 *  0.957736 *   0.00000    1.000000    
     32 C1    c    0.723771 *  0.976694 *  0.034417 *   0.00000    1.000000    
     33 C1    c    0.731139 *  0.030375 *  0.857736 *   0.00000    1.000000    
     34 C1    c    0.763889 *  0.932701 *  0.833458 *   0.00000    1.000000    
     35 C1    c    0.782340 *  0.114382 *  0.820257 *   0.00000    1.000000    
     36 C1    c    0.861597 *  0.106444 *  0.758625 *   0.00000    1.000000    
     37 C1    c    0.755514 *  0.880910 *  0.012431 *   0.00000    1.000000    
     38 C1    c    0.782625 *  0.861681 *  0.912264 *   0.00000    1.000000    
     39 C1    c    0.812854 *  0.844229 *  0.091806 *   0.00000    1.000000    
     40 C1    c    0.898243 *  0.792611 *  0.073132 *   0.00000    1.000000    
     41 C1    c    0.813285 *  0.923694 *  0.164167 *   0.00000    1.000000    
     42 C1    c    0.894764 *  0.940403 *  0.220507 *   0.00000    1.000000    
     43 C1    c    0.873097 *  0.817708 *  0.892868 *   0.00000    1.000000    
     44 C1    c    0.926792 *  0.780743 *  0.966500 *   0.00000    1.000000    
     45 C1    c    0.913500 *  0.853354 *  0.808514 *   0.00000    1.000000    
     46 C1    c    0.018924 *  0.855514 *  0.798125 *   0.00000    1.000000    
     47 C1    c    0.855313 *  0.927111 *  0.770944 *   0.00000    1.000000    
     48 C1    c    0.897361 *  0.017069 *  0.734444 *   0.00000    1.000000    
     49 C1    c    0.035549 *  0.784889 *  0.959778 *   0.00000    1.000000    
     50 C1    c    0.079910 *  0.819028 *  0.875722 *   0.00000    1.000000    
     51 C1    c    0.075521 *  0.807347 *  0.060611 *   0.00000    1.000000    
     52 C1    c    0.151118 *  0.875889 *  0.068201 *   0.00000    1.000000    
     53 C1    c    0.985625 *  0.816667 *  0.126500 *   0.00000    1.000000    
     54 C1    c    0.984111 *  0.886312 *  0.197785 *   0.00000    1.000000    
     55 C1    c    0.161806 *  0.886590 *  0.884681 *   0.00000    1.000000    
     56 C1    c    0.196104 *  0.911917 *  0.978306 *   0.00000    1.000000    
     57 C1    c    0.063715 *  0.939736 *  0.756993 *   0.00000    1.000000    
     58 C1    c    0.005597 *  0.022771 *  0.727236 *   0.00000    1.000000    
     59 C1    c    0.148187 *  0.945806 *  0.141229 *   0.00000    1.000000    
     60 C1    c    0.068069 *  0.953271 *  0.200924 *   0.00000    1.000000    
     61 C1    c    0.577681 *  0.734750 *  0.888528 *   0.00000    1.000000    
     62 C1    c    0.530486 *  0.765799 *  0.971361 *   0.00000    1.000000    
     63 C1    c    0.522944 *  0.708035 *  0.803257 *   0.00000    1.000000    
     64 C1    c    0.419743 *  0.718319 *  0.804500 *   0.00000    1.000000    
     65 C1    c    0.651340 *  0.598049 *  0.821806 *   0.00000    1.000000    
     66 C1    c    0.681660 *  0.502701 *  0.836806 *   0.00000    1.000000    
     67 C1    c    0.658646 *  0.669729 *  0.897396 *   0.00000    1.000000    
     68 C1    c    0.692472 *  0.644090 *  0.989208 *   0.00000    1.000000    
     69 C1    c    0.565410 *  0.620937 *  0.769090 *   0.00000    1.000000    
     70 C1    c    0.509611 *  0.544507 *  0.733472 *   0.00000    1.000000    
     71 C1    c    0.428146 *  0.771042 * -0.016229 *   0.00000    1.000000    
     72 C1    c    0.371139 *  0.750639 *  0.892028 *   0.00000    1.000000    
     73 C1    c    0.398639 *  0.749944 *  0.078444 *   0.00000    1.000000    
     74 C1    c    0.315368 *  0.698208 *  0.089313 *   0.00000    1.000000    
     75 C1    c    0.565000 *  0.745542 *  0.074181 *   0.00000    1.000000    
     76 C1    c    0.643958 *  0.680437 *  0.081472 *   0.00000    1.000000    
     77 C1    c    0.483056 *  0.737382 *  0.139854 *   0.00000    1.000000    
     78 C1    c    0.481465 *  0.658222 *  0.204215 *   0.00000    1.000000    
     79 C1    c    0.285083 *  0.696750 *  0.908417 *   0.00000    1.000000    
     80 C1    c    0.260257 *  0.666743 *  0.008722 *   0.00000    1.000000    
     81 C1    c    0.280917 *  0.624056 *  0.833069 *   0.00000    1.000000    
     82 C1    c    0.244674 *  0.529104 *  0.853549 *   0.00000    1.000000    
     83 C1    c    0.364590 *  0.633993 *  0.774660 *   0.00000    1.000000    
     84 C1    c    0.407924 *  0.551167 *  0.736437 *   0.00000    1.000000    
     85 C1    c    0.221306 *  0.573806 *  0.028076 *   0.00000    1.000000    
     86 C1    c    0.214396 *  0.505132 *  0.949972 *   0.00000    1.000000    
     87 C1    c    0.256181 *  0.547993 *  0.124368 *   0.00000    1.000000    
     88 C1    c    0.284139 *  0.451715 *  0.140104 *   0.00000    1.000000    
     89 C1    c    0.310500 *  0.626062 *  0.163285 *   0.00000    1.000000    
     90 C1    c    0.391819 *  0.602618 *  0.220306 *   0.00000    1.000000    
     91 C1    c    0.244632 *  0.407549 *  0.968319 *   0.00000    1.000000    
     92 C1    c    0.277722 *  0.384437 *  0.066417 *   0.00000    1.000000    
     93 C1    c    0.288451 *  0.367514 *  0.882306 *   0.00000    1.000000    
     94 C1    c    0.368743 *  0.309285 *  0.894153 *   0.00000    1.000000    
     95 C1    c    0.292056 *  0.445639 *  0.814639 *   0.00000    1.000000    
     96 C1    c    0.372757 *  0.456958 *  0.757062 *   0.00000    1.000000    
     97 C1    c    0.354500 *  0.316222 *  0.077688 *   0.00000    1.000000    
     98 C1    c    0.402715 *  0.286181 *  0.988035 *   0.00000    1.000000    
     99 C1    c    0.411729 *  0.338507 *  0.164257 *   0.00000    1.000000    
    100 C1    c    0.515396 *  0.328729 *  0.162799 *   0.00000    1.000000    
    101 C1    c    0.366160 *  0.426993 *  0.200639 *   0.00000    1.000000    
    102 C1    c    0.422979 *  0.502042 *  0.237299 *   0.00000    1.000000    
    103 C1    c    0.503333 *  0.278319 *  0.987687 *   0.00000    1.000000    
    104 C1    c    0.558993 *  0.300285 *  0.070875 *   0.00000    1.000000    
    105 C1    c    0.533187 *  0.303410 *  0.889910 *   0.00000    1.000000    
    106 C1    c    0.617660 *  0.353118 *  0.874812 *   0.00000    1.000000    
    107 C1    c    0.449382 *  0.320813 *  0.832243 *   0.00000    1.000000    
    108 C1    c    0.452049 *  0.389194 *  0.759729 *   0.00000    1.000000    
    109 C1    c    0.642660 *  0.359361 *  0.055215 *   0.00000    1.000000    
    110 C1    c    0.672181 *  0.382910 *  0.954069 *   0.00000    1.000000    
    111 C1    c    0.656826 *  0.424958 *  0.132986 *   0.00000    1.000000    
    112 C1    c    0.687937 *  0.521236 *  0.113618 *   0.00000    1.000000    
    113 C1    c    0.574556 *  0.411924 *  0.194375 *   0.00000    1.000000    
    114 C1    c    0.526201 *  0.496326 *  0.228924 *   0.00000    1.000000    
    115 C1    c    0.712549 *  0.476375 *  0.932882 *   0.00000    1.000000    
    116 C1    c    0.719785 *  0.544618 *  1.006965 *   0.00000    1.000000    
    117 C1    c    0.620819 *  0.424236 *  0.798222 *   0.00000    1.000000    
    118 C1    c    0.538306 *  0.445174 *  0.744132 *   0.00000    1.000000    
    119 C1    c    0.641000 *  0.604194 *  0.149896 *   0.00000    1.000000    
    120 C1    c    0.560604 *  0.591292 *  0.205951 *   0.00000    1.000000    
    121 C1    c    0.692111 *  0.155375 *  0.475424 *   0.00000    1.000000    
    122 C1    c    0.656431 *  0.183674 *  0.568319 *   0.00000    1.000000    
    123 C1    c    0.640986 *  0.184410 *  0.390590 *   0.00000    1.000000    
    124 C1    c    0.563250 *  0.245729 *  0.397417 *   0.00000    1.000000    
    125 C1    c    0.698271 *  0.031528 *  0.361771 *   0.00000    1.000000    
    126 C1    c    0.668854 *  0.930090 *  0.340743 *   0.00000    1.000000    
    127 C1    c    0.725201 *  0.058306 *  0.461833 *   0.00000    1.000000    
    128 C1    c    0.718715 * -0.008139 *  0.536271 *   0.00000    1.000000    
    129 C1    c    0.648819 *  0.111583 *  0.318840 *   0.00000    1.000000    
    130 C1    c    0.572882 *  0.099292 *  0.255076 *   0.00000    1.000000    
    131 C1    c    0.570854 *  0.246417 *  0.575806 *   0.00000    1.000000    
    132 C1    c    0.525208 *  0.275826 *  0.488076 *   0.00000    1.000000    
    133 C1    c    0.512660 *  0.217799 *  0.655931 *   0.00000    1.000000    
    134 C1    c    0.412319 *  0.221083 *  0.648229 *   0.00000    1.000000    
    135 C1    c    0.648694 *  0.114993 *  0.644549 *   0.00000    1.000000    
    136 C1    c    0.675653 *  0.020417 *  0.627937 *   0.00000    1.000000    
    137 C1    c    0.557132 *  0.135014 *  0.698882 *   0.00000    1.000000    
    138 C1    c    0.501521 *  0.058639 *  0.729361 *   0.00000    1.000000    
    139 C1    c    0.425222 *  0.279715 *  0.480458 *   0.00000    1.000000    
    140 C1    c    0.367396 *  0.248285 *  0.558312 *   0.00000    1.000000    
    141 C1    c    0.399660 *  0.256806 *  0.382792 *   0.00000    1.000000    
    142 C1    c    0.316701 *  0.199007 *  0.366271 *   0.00000    1.000000    
    143 C1    c    0.484889 *  0.236743 *  0.329917 *   0.00000    1.000000    
    144 C1    c    0.487257 *  0.161507 *  0.260257 *   0.00000    1.000000    
    145 C1    c    0.279097 *  0.198167 *  0.541194 *   0.00000    1.000000    
    146 C1    c    0.254917 *  0.170708 *  0.446972 *   0.00000    1.000000    
    147 C1    c    0.267465 *  0.129076 *  0.620236 *   0.00000    1.000000    
    148 C1    c    0.239694 *  0.034264 *  0.599437 *   0.00000    1.000000    
    149 C1    c    0.351799 *  0.144250 *  0.685549 *   0.00000    1.000000    
    150 C1    c    0.399125 *  0.062535 *  0.723750 *   0.00000    1.000000    
    151 C1    c    0.218951 *  0.074646 *  0.424917 *   0.00000    1.000000    
    152 C1    c    0.211229 *  1.000722 *  0.500340 *   0.00000    1.000000    
    153 C1    c    0.262472 *  0.044958 *  0.335292 *   0.00000    1.000000    
    154 C1    c    0.289611 *  0.942576 *  0.318396 *   0.00000    1.000000    
    155 C1    c    0.320354 *  0.121542 *  0.301875 *   0.00000    1.000000    
    156 C1    c    0.404854 *  0.102090 *  0.249736 *   0.00000    1.000000    
    157 C1    c    0.249417 *  0.903632 *  0.487535 *   0.00000    1.000000    
    158 C1    c    0.285590 *  0.874333 *  0.394000 *   0.00000    1.000000    
    159 C1    c    0.294049 *  0.869743 *  0.572062 *   0.00000    1.000000    
    160 C1    c    0.370486 *  0.808479 *  0.566340 *   0.00000    1.000000    
    161 C1    c    0.292000 *  0.945292 *  0.642326 *   0.00000    1.000000    
    162 C1    c    0.366597 *  0.960097 *  0.706715 *   0.00000    1.000000    
    163 C1    c    0.364181 *  0.808528 *  0.388535 *   0.00000    1.000000    
    164 C1    c    0.410125 *  0.783889 *  0.473090 *   0.00000    1.000000    
    165 C1    c    0.421014 *  0.838736 *  0.306132 *   0.00000    1.000000    
    166 C1    c    0.525444 *  0.836840 *  0.313028 *   0.00000    1.000000    
    167 C1    c    0.375493 *  0.921729 *  0.263951 *   0.00000    1.000000    
    168 C1    c    0.432389 *  1.000417 *  0.235528 *   0.00000    1.000000    
    169 C1    c    0.511576 *  0.783694 *  0.480597 *   0.00000    1.000000    
    170 C1    c    0.569514 *  0.810146 *  0.402917 *   0.00000    1.000000    
    171 C1    c    0.539035 *  0.799375 *  0.577757 *   0.00000    1.000000    
    172 C1    c    0.618639 *  0.859993 *  0.592208 *   0.00000    1.000000    
    173 C1    c    0.450222 *  0.815333 *  0.634660 *   0.00000    1.000000    
    174 C1    c    0.448361 *  0.892861 *  0.703187 *   0.00000    1.000000    
    175 C1    c    0.657444 *  0.861486 *  0.418194 *   0.00000    1.000000    
    176 C1    c    0.681993 *  0.886625 *  0.514722 *   0.00000    1.000000    
    177 C1    c    0.583632 *  0.916389 *  0.278840 *   0.00000    1.000000    
    178 C1    c    0.536549 *  0.004132 *  0.239743 *   0.00000    1.000000    
    179 C1    c    0.613194 *  0.935660 *  0.659056 *   0.00000    1.000000    
    180 C1    c    0.531889 *  0.953451 *  0.715472 *   0.00000    1.000000    
    181 C1    c    0.072826 *  0.742993 *  0.387229 *   0.00000    1.000000    
    182 C1    c    0.018444 *  0.782181 *  0.465764 *   0.00000    1.000000    
    183 C1    c    0.023375 *  0.694243 *  0.311771 *   0.00000    1.000000    
    184 C1    c    0.917014 *  0.697347 *  0.301715 *   0.00000    1.000000    
    185 C1    c    0.166382 *  0.607229 *  0.331222 *   0.00000    1.000000    
    186 C1    c    0.192833 *  0.513674 *  0.359347 *   0.00000    1.000000    
    187 C1    c    0.155097 *  0.681438 *  0.404847 *   0.00000    1.000000    
    188 C1    c    0.179285 *  0.660583 *  0.501674 *   0.00000    1.000000    
    189 C1    c    0.077868 *  0.619667 *  0.272368 *   0.00000    1.000000    
    190 C1    c    0.028333 *  0.537708 *  0.234778 *   0.00000    1.000000    
    191 C1    c    0.909785 *  0.782687 *  0.458764 *   0.00000    1.000000    
    192 C1    c    0.862583 *  0.739819 *  0.376639 *   0.00000    1.000000    
    193 C1    c    0.875243 *  0.758194 *  0.555597 *   0.00000    1.000000    
    194 C1    c    0.792833 *  0.697465 *  0.565319 *   0.00000    1.000000    
    195 C1    c    0.046007 *  0.755722 *  0.563951 *   0.00000    1.000000    
    196 C1    c    0.124986 *  0.697687 *  0.580785 *   0.00000    1.000000    
    197 C1    c    0.956722 *  0.743028 *  0.619306 *   0.00000    1.000000    
    198 C1    c    0.950590 *  0.675167 *  0.693611 *   0.00000    1.000000    
    199 C1    c    0.777576 *  0.678778 *  0.389062 *   0.00000    1.000000    
    200 C1    c    0.743326 *  0.659410 *  0.483687 *   0.00000    1.000000    
    201 C1    c    0.778799 *  0.604826 *  0.315847 *   0.00000    1.000000    
    202 C1    c    0.750444 *  0.511625 *  0.342653 *   0.00000    1.000000    
    203 C1    c    0.863653 *  0.619403 *  0.258500 *   0.00000    1.000000    
    204 C1    c    0.914639 *  0.539701 *  0.221535 *   0.00000    1.000000    
    205 C1    c    0.708931 *  0.565146 *  0.507181 *   0.00000    1.000000    
    206 C1    c    0.717451 *  0.492576 *  0.437778 *   0.00000    1.000000    
    207 C1    c    0.730007 *  0.543715 *  0.608271 *   0.00000    1.000000    
    208 C1    c    0.758347 *  0.448701 *  0.638979 *   0.00000    1.000000    
    209 C1    c    0.785618 *  0.627562 *  0.640000 *   0.00000    1.000000    
    210 C1    c    0.863840 *  0.617215 *  0.707771 *   0.00000    1.000000    
    211 C1    c    0.743187 *  0.396076 *  0.467333 *   0.00000    1.000000    
    212 C1    c    0.767215 *  0.374215 *  0.563243 *   0.00000    1.000000    
    213 C1    c    0.799139 *  0.358167 *  0.390361 *   0.00000    1.000000    
    214 C1    c    0.882139 *  0.300583 *  0.407194 *   0.00000    1.000000    
    215 C1    c    0.803271 *  0.430833 *  0.312840 *   0.00000    1.000000    
    216 C1    c    0.883840 *  0.443083 *  0.256139 *   0.00000    1.000000    
    217 C1    c    0.856528 *  0.322347 *  0.581833 *   0.00000    1.000000    
    218 C1    c    0.907528 *  0.276458 *  0.505667 *   0.00000    1.000000    
    219 C1    c    0.903174 *  0.362250 *  0.660826 *   0.00000    1.000000    
    220 C1    c    0.012000 *  0.362257 *  0.664896 *   0.00000    1.000000    
    221 C1    c    0.848167 *  0.442597 *  0.692750 *   0.00000    1.000000    
    222 C1    c    0.895618 *  0.521708 *  0.730521 *   0.00000    1.000000    
    223 C1    c    0.020479 *  0.276757 *  0.508146 *   0.00000    1.000000    
    224 C1    c    0.069597 *  0.316069 *  0.591312 *   0.00000    1.000000    
    225 C1    c    0.053319 *  0.305847 *  0.412333 *   0.00000    1.000000    
    226 C1    c    0.136292 *  0.360653 *  0.403972 *   0.00000    1.000000    
    227 C1    c    0.967083 *  0.316187 *  0.350653 *   0.00000    1.000000    
    228 C1    c    0.968910 *  0.383764 *  0.274486 *   0.00000    1.000000    
    229 C1    c    0.155604 *  0.375326 *  0.579437 *   0.00000    1.000000    
    230 C1    c    0.187917 *  0.396389 *  0.486153 *   0.00000    1.000000    
    231 C1    c    0.151069 *  0.454229 *  0.653312 *   0.00000    1.000000    
    232 C1    c    0.178035 *  0.545597 *  0.626632 *   0.00000    1.000000    
    233 C1    c    0.060097 *  0.442243 *  0.700979 *   0.00000    1.000000    
    234 C1    c    0.009076 *  0.523132 *  0.732201 *   0.00000    1.000000    
    235 C1    c    0.214583 *  0.491368 *  0.462257 *   0.00000    1.000000    
    236 C1    c    0.209000 *  0.562382 *  0.530479 *   0.00000    1.000000    
    237 C1    c    0.140243 *  0.432194 *  0.325875 *   0.00000    1.000000    
    238 C1    c    0.061160 *  0.444653 *  0.262660 *   0.00000    1.000000    
    239 C1    c    0.125035 *  0.631007 *  0.660549 *   0.00000    1.000000    
    240 C1    c    0.039660 *  0.618181 *  0.713889 *   0.00000    1.000000    
--------------------------------------------------------------------------------



  Molecule list generated from bond lengths :

  Total number of molecules =     4

--------------------------------------------------------------------------------
Molecule No./:  Atoms
Periodicity  :  
--------------------------------------------------------------------------------
     1  0    : C1   c     1 C1   c     2 C1   c     3 C1   c     4 C1   c     5
             : C1   c     6 C1   c     7 C1   c     8 C1   c     9 C1   c    10
             : C1   c    11 C1   c    12 C1   c    13 C1   c    14 C1   c    15
             : C1   c    16 C1   c    17 C1   c    18 C1   c    19 C1   c    20
             : C1   c    21 C1   c    22 C1   c    23 C1   c    24 C1   c    25
             : C1   c    26 C1   c    27 C1   c    28 C1   c    29 C1   c    30
             : C1   c    31 C1   c    32 C1   c    33 C1   c    34 C1   c    35
             : C1   c    36 C1   c    37 C1   c    38 C1   c    39 C1   c    40
             : C1   c    41 C1   c    42 C1   c    43 C1   c    44 C1   c    45
             : C1   c    46 C1   c    47 C1   c    48 C1   c    49 C1   c    50
             : C1   c    51 C1   c    52 C1   c    53 C1   c    54 C1   c    55
             : C1   c    56 C1   c    57 C1   c    58 C1   c    59 C1   c    60
     2  0    : C1   c    61 C1   c    62 C1   c    63 C1   c    64 C1   c    65
             : C1   c    66 C1   c    67 C1   c    68 C1   c    69 C1   c    70
             : C1   c    71 C1   c    72 C1   c    73 C1   c    74 C1   c    75
             : C1   c    76 C1   c    77 C1   c    78 C1   c    79 C1   c    80
             : C1   c    81 C1   c    82 C1   c    83 C1   c    84 C1   c    85
             : C1   c    86 C1   c    87 C1   c    88 C1   c    89 C1   c    90
             : C1   c    91 C1   c    92 C1   c    93 C1   c    94 C1   c    95
             : C1   c    96 C1   c    97 C1   c    98 C1   c    99 C1   c   100
             : C1   c   101 C1   c   102 C1   c   103 C1   c   104 C1   c   105
             : C1   c   106 C1   c   107 C1   c   108 C1   c   109 C1   c   110
             : C1   c   111 C1   c   112 C1   c   113 C1   c   114 C1   c   115
             : C1   c   116 C1   c   117 C1   c   118 C1   c   119 C1   c   120
     3  0    : C1   c   121 C1   c   122 C1   c   123 C1   c   124 C1   c   125
             : C1   c   126 C1   c   127 C1   c   128 C1   c   129 C1   c   130
             : C1   c   131 C1   c   132 C1   c   133 C1   c   134 C1   c   135
             : C1   c   136 C1   c   137 C1   c   138 C1   c   139 C1   c   140
             : C1   c   141 C1   c   142 C1   c   143 C1   c   144 C1   c   145
             : C1   c   146 C1   c   147 C1   c   148 C1   c   149 C1   c   150
             : C1   c   151 C1   c   152 C1   c   153 C1   c   154 C1   c   155
             : C1   c   156 C1   c   157 C1   c   158 C1   c   159 C1   c   160
             : C1   c   161 C1   c   162 C1   c   163 C1   c   164 C1   c   165
             : C1   c   166 C1   c   167 C1   c   168 C1   c   169 C1   c   170
             : C1   c   171 C1   c   172 C1   c   173 C1   c   174 C1   c   175
             : C1   c   176 C1   c   177 C1   c   178 C1   c   179 C1   c   180
     4  0    : C1   c   181 C1   c   182 C1   c   183 C1   c   184 C1   c   185
             : C1   c   186 C1   c   187 C1   c   188 C1   c   189 C1   c   190
             : C1   c   191 C1   c   192 C1   c   193 C1   c   194 C1   c   195
             : C1   c   196 C1   c   197 C1   c   198 C1   c   199 C1   c   200
             : C1   c   201 C1   c   202 C1   c   203 C1   c   204 C1   c   205
             : C1   c   206 C1   c   207 C1   c   208 C1   c   209 C1   c   210
             : C1   c   211 C1   c   212 C1   c   213 C1   c   214 C1   c   215
             : C1   c   216 C1   c   217 C1   c   218 C1   c   219 C1   c   220
             : C1   c   221 C1   c   222 C1   c   223 C1   c   224 C1   c   225
             : C1   c   226 C1   c   227 C1   c   228 C1   c   229 C1   c   230
             : C1   c   231 C1   c   232 C1   c   233 C1   c   234 C1   c   235
             : C1   c   236 C1   c   237 C1   c   238 C1   c   239 C1   c   240
--------------------------------------------------------------------------------

  Brillouin zone sampling points :

--------------------------------------------------------------------------------
  Point number          x          y          z            Weight
--------------------------------------------------------------------------------
        1           0.000000   0.000000   0.000000         1.0000
--------------------------------------------------------------------------------


********************************************************************************
*  General input information                                                   *
********************************************************************************

  Species output for all configurations : 

--------------------------------------------------------------------------------
  Species    Type    Atomic    Atomic    Charge       Radii (Angs)     Library
                     Number     Mass       (e)     Cova   Ionic  VDW   Symbol
--------------------------------------------------------------------------------
    C1       Core        6      12.01   0.000000   0.770  0.000  1.530          
--------------------------------------------------------------------------------


  Lattice summation method               =    Ewald          (3-D)
                                         =    Parry          (2-D)
                                         =    Saunders et al (1-D)
  Accuracy factor for lattice sums       =   12.000


  Time limit = Infinity

  Maximum range for interatomic potentials =    100000.000000 Angstroms

  Intramolecular potentials :

--------------------------------------------------------------------------------
Atom  Types   Potential         A         B         C         D     Cutoffs(Ang)
  1     2                                                            Min    Max 
--------------------------------------------------------------------------------
C1   c C1   c Harmonic       0.00      1.40      0.00      0.00     0.000 1 Bond
                                                                    single      
--------------------------------------------------------------------------------

  Intermolecular potentials :

--------------------------------------------------------------------------------
Atom  Types   Potential         A         B         C         D     Cutoffs(Ang)
  1     2                                                            Min    Max 
--------------------------------------------------------------------------------
C1   c C1   c Lenn/es 12  6 0.700E-01  3.55      0.00      0.00     0.000 12.000
--------------------------------------------------------------------------------

  Bond-order two-body potentials :

--------------------------------------------------------------------------------
Atom  Types                 A                 B                  Cutoffs(Ang)   
  1     2                 ZetaA             ZetaB                Taper    Max   
--------------------------------------------------------------------------------
C1   c C1   c          1393.6000000000       430.0000000000     1.8000   2.1000
                          3.487900000          2.211900000    
--------------------------------------------------------------------------------

  Bond-order repulsive :

--------------------------------------------------------------------------------
Atom    Type         Alpha            N             Lambda          M           
 1/2     1/2                                                                    
--------------------------------------------------------------------------------
C1   c             0.00000000       0.72751000       2.21190000       3
C1   c
--------------------------------------------------------------------------------

  Bond-order attractive :

--------------------------------------------------------------------------------
Atom    Type         Alpha            N             Lambda          M           
 1/2     1/2           C              D                H                        
--------------------------------------------------------------------------------
C1   c  Theta       0.00000016       0.72751000       2.21190000       3
C1   c          38049.00000000       4.38400000      -0.93000000
--------------------------------------------------------------------------------

********************************************************************************
*  Output for configuration   1                                                *
********************************************************************************


  Components of energy : 

--------------------------------------------------------------------------------
  Interatomic potentials     =        -139.53983890 eV
  Bond-order potentials      =       -1722.08330919 eV
  Monopole - monopole (real) =           0.00000000 eV
  Monopole - monopole (recip)=           0.00000000 eV
  Monopole - monopole (total)=           0.00000000 eV
--------------------------------------------------------------------------------
  Total lattice energy       =       -1861.62314808 eV
--------------------------------------------------------------------------------
  Total lattice energy       =         -179618.1763 kJ/(mole unit cells)
--------------------------------------------------------------------------------


  Number of variables =      717

  Maximum number of calculations  =         10000
  Maximum Hessian update interval =            10
  Maximum step size               =   1.000000000
  Maximum parameter tolerance     =   0.000010000
  Maximum function  tolerance     =   0.000010000
  Maximum gradient  tolerance     =   0.001000000
  Maximum gradient  component     =   0.010000000

  Symmetry not applied to optimisation

  Newton-Raphson optimiser to be used

  BFGS hessian update to be used

  Start of bulk optimisation :

  Cycle:      0 Energy:     -1861.623148  Gnorm:      1.796634  CPU:    0.204
  ** Hessian calculated **
  Cycle:      1 Energy:     -1863.218290  Gnorm:      1.764292  CPU:    0.768
  Cycle:      2 Energy:     -1878.458787  Gnorm:      1.451937  CPU:    1.197
  ** Hessian calculated **
  Cycle:      3 Energy:     -1906.985993  Gnorm:      0.610133  CPU:    1.883
  ** Hessian calculated **
  Cycle:      4 Energy:     -1911.992650  Gnorm:      0.560183  CPU:    2.567
  Cycle:      5 Energy:     -1914.715390  Gnorm:      0.307320  CPU:    2.842
  ** Hessian calculated **
  Cycle:      6 Energy:     -1919.265318  Gnorm:      0.201347  CPU:    3.542
  Cycle:      7 Energy:     -1919.290546  Gnorm:      0.192534  CPU:    4.195
  ** Hessian calculated **
  Cycle:      8 Energy:     -1919.971035  Gnorm:      0.189806  CPU:    4.827
  Cycle:      9 Energy:     -1921.230125  Gnorm:      0.249043  CPU:    5.186
  Cycle:     10 Energy:     -1921.450812  Gnorm:      0.221827  CPU:    5.472
  ** Hessian calculated **
  Cycle:     11 Energy:     -1923.418310  Gnorm:      0.195433  CPU:    6.178
  Cycle:     12 Energy:     -1923.861665  Gnorm:      0.273522  CPU:    6.453
  Cycle:     13 Energy:     -1924.178676  Gnorm:      0.139287  CPU:    6.720
  Cycle:     14 Energy:     -1926.893561  Gnorm:      0.440325  CPU:    7.267
  Cycle:     15 Energy:     -1927.190361  Gnorm:      0.467506  CPU:    7.614
  Cycle:     16 Energy:     -1928.326634  Gnorm:      0.425376  CPU:    8.028
  Cycle:     17 Energy:     -1931.163253  Gnorm:      0.423062  CPU:    8.380
  Cycle:     18 Energy:     -1932.537799  Gnorm:      0.202999  CPU:    8.666
  Cycle:     19 Energy:     -1933.176864  Gnorm:      0.149737  CPU:    8.955
  Cycle:     20 Energy:     -1933.432882  Gnorm:      0.113317  CPU:    9.243
  ** Hessian calculated **
  Cycle:     21 Energy:     -1933.638195  Gnorm:      0.090155  CPU:    9.805
  Cycle:     22 Energy:     -1933.831234  Gnorm:      0.092258  CPU:   10.167
  Cycle:     23 Energy:     -1934.118897  Gnorm:      0.093024  CPU:   10.523
  Cycle:     24 Energy:     -1934.365838  Gnorm:      0.091893  CPU:   10.864
  Cycle:     25 Energy:     -1934.570920  Gnorm:      0.070917  CPU:   11.248
  Cycle:     26 Energy:     -1934.703287  Gnorm:      0.055515  CPU:   11.528
  Cycle:     27 Energy:     -1934.791624  Gnorm:      0.048743  CPU:   11.797
  Cycle:     28 Energy:     -1934.854931  Gnorm:      0.039961  CPU:   12.086
  Cycle:     29 Energy:     -1934.902248  Gnorm:      0.036742  CPU:   12.470
  Cycle:     30 Energy:     -1934.939906  Gnorm:      0.028316  CPU:   12.868
  ** Hessian calculated **
  Cycle:     31 Energy:     -1935.056461  Gnorm:      0.025788  CPU:   13.865
  Cycle:     32 Energy:     -1935.160823  Gnorm:      0.023674  CPU:   14.274
  Cycle:     33 Energy:     -1935.301729  Gnorm:      0.019863  CPU:   14.694
  Cycle:     34 Energy:     -1935.433729  Gnorm:      0.014723  CPU:   15.105
  ** Hessian calculated **
  Cycle:     35 Energy:     -1935.438589  Gnorm:      0.011172  CPU:   15.805
  Cycle:     36 Energy:     -1935.441791  Gnorm:      0.007674  CPU:   16.202
  Cycle:     37 Energy:     -1935.442884  Gnorm:      0.004498  CPU:   16.563
  Cycle:     38 Energy:     -1935.443441  Gnorm:      0.003269  CPU:   16.878
  Cycle:     39 Energy:     -1935.444131  Gnorm:      0.003857  CPU:   17.175
  Cycle:     40 Energy:     -1935.444165  Gnorm:      0.003613  CPU:   17.452
  Cycle:     41 Energy:     -1935.444179  Gnorm:      0.003534  CPU:   17.874
  Cycle:     42 Energy:     -1935.444242  Gnorm:      0.001792  CPU:   18.356
  Cycle:     43 Energy:     -1935.444307  Gnorm:      0.001340  CPU:   18.686
  Cycle:     44 Energy:     -1935.444336  Gnorm:      0.001356  CPU:   19.196
  ** Hessian calculated **
  Cycle:     45 Energy:     -1935.444381  Gnorm:      0.001352  CPU:   20.012
  Cycle:     46 Energy:     -1935.444381  Gnorm:      0.001352  CPU:   20.341
  ** Hessian calculated **
  Cycle:     47 Energy:     -1935.444381  Gnorm:      0.001352  CPU:   21.096
  ** Hessian calculated **

  XYZ File written as gulp.xyz                                



  **** Conditions for a minimum have not been satisfied. However ****
  **** no lower point can be found - treat results with caution  ****
  **** unless gradient norm is small (less than 0.1)             ****


  Final energy =   -1935.44438072 eV
  Final Gnorm  =       0.00135167

  Components of energy : 

--------------------------------------------------------------------------------
  Interatomic potentials     =        -187.15136136 eV
  Bond-order potentials      =       -1748.29301937 eV
  Monopole - monopole (real) =           0.00000000 eV
  Monopole - monopole (recip)=           0.00000000 eV
  Monopole - monopole (total)=           0.00000000 eV
--------------------------------------------------------------------------------
  Total lattice energy       =       -1935.44438072 eV
--------------------------------------------------------------------------------
  Total lattice energy       =         -186740.7968 kJ/(mole unit cells)
--------------------------------------------------------------------------------

  Final fractional coordinates of atoms :

--------------------------------------------------------------------------------
   No.  Atomic        x           y          z          Radius
        Label       (Frac)      (Frac)     (Frac)       (Angs) 
--------------------------------------------------------------------------------
     1  C1    c     0.172722    0.180583    0.951979    0.000000
     2  C1    c     0.144353    0.200630    0.044907    0.000000
     3  C1    c     0.118552    0.218621    0.873097    0.000000
     4  C1    c     0.038347    0.274803    0.890403    0.000000
     5  C1    c     0.171913    0.067720    0.836033    0.000000
     6  C1    c     0.141974    0.975615    0.814589    0.000000
     7  C1    c     0.212196    0.089179    0.927864    0.000000
     8  C1    c     0.218287    0.017979   -0.002515    0.000000
     9  C1    c     0.118405    0.147512    0.799338    0.000000
    10  C1    c     0.037650    0.131903    0.743264    0.000000
    11  C1    c     0.061963    0.259950    0.061913    0.000000
    12  C1    c     0.009520    0.299772    0.986864    0.000000
    13  C1    c     0.014355    0.214186    0.139653    0.000000
    14  C1    c     0.915136    0.211680    0.143380    0.000000
    15  C1    c     0.149938    0.128468    0.116359    0.000000
    16  C1    c     0.184292    0.038133    0.092658    0.000000
    17  C1    c     0.069480    0.138756    0.180541    0.000000
    18  C1    c     0.024128    0.059659    0.221831    0.000000
    19  C1    c     0.905544    0.295286   -0.009527    0.000000
    20  C1    c     0.859550    0.254112    0.069211    0.000000
    21  C1    c     0.870803    0.268447    0.896658    0.000000
    22  C1    c     0.791597    0.209567    0.884762    0.000000
    23  C1    c     0.952989    0.252169    0.839199    0.000000
    24  C1    c     0.952561    0.182542    0.768077    0.000000
    25  C1    c     0.777236    0.192325    0.057454    0.000000
    26  C1    c     0.741906    0.171164    0.966618    0.000000
    27  C1    c     0.785690    0.117467    0.126332    0.000000
    28  C1    c     0.756538    0.025142    0.104413    0.000000
    29  C1    c     0.867784    0.132513    0.186663    0.000000
    30  C1    c     0.919658    0.056372    0.225354    0.000000
    31  C1    c     0.709241    0.075303    0.944267    0.000000
    32  C1    c     0.715595    1.003178    0.013236    0.000000
    33  C1    c     0.743920    0.054879    0.849658    0.000000
    34  C1    c     0.778347    0.964395    0.826230    0.000000
    35  C1    c     0.791756    0.137699    0.811689    0.000000
    36  C1    c     0.869397    0.126793    0.750247    0.000000
    37  C1    c     0.753464    0.910136   -0.010673    0.000000
    38  C1    c     0.782402    0.890425    0.896409    0.000000
    39  C1    c     0.808952    0.873037    0.067904    0.000000
    40  C1    c     0.889547    0.817352    0.051154    0.000000
    41  C1    c     0.809795    0.945247    0.140764    0.000000
    42  C1    c     0.889885    0.960842    0.197674    0.000000
    43  C1    c     0.866325    0.832708    0.879682    0.000000
    44  C1    c     0.919234    0.793003    0.954759    0.000000
    45  C1    c     0.913884    0.878532    0.802118    0.000000
    46  C1    c     0.013073    0.881064    0.798347    0.000000
    47  C1    c     0.858705    0.954233    0.762127    0.000000
    48  C1    c     0.903356    0.033378    0.720489    0.000000
    49  C1    c     0.023433    0.796060    0.951027    0.000000
    50  C1    c     0.068841    0.837965    0.872387    0.000000
    51  C1    c     0.056359    0.824439    0.045082    0.000000
    52  C1    c     0.133662    0.885767    0.056560    0.000000
    53  C1    c     0.974490    0.839877    0.102997    0.000000
    54  C1    c     0.974858    0.909959    0.173696    0.000000
    55  C1    c     0.149190    0.901924    0.884182    0.000000
    56  C1    c     0.183300    0.923832    0.975044    0.000000
    57  C1    c     0.059928    0.960293    0.754434    0.000000
    58  C1    c     0.007723    0.036353    0.715947    0.000000
    59  C1    c     0.135023    0.955951    0.130272    0.000000
    60  C1    c     0.057638    0.966297    0.191854    0.000000
    61  C1    c     0.573103    0.739742    0.881621    0.000000
    62  C1    c     0.527833    0.787464    0.958130    0.000000
    63  C1    c     0.515305    0.703145    0.803642    0.000000
    64  C1    c     0.416157    0.709478    0.806222    0.000000
    65  C1    c     0.637825    0.600894    0.812033    0.000000
    66  C1    c     0.664377    0.506247    0.826687    0.000000
    67  C1    c     0.655491    0.672072    0.883052    0.000000
    68  C1    c     0.707738    0.649280    0.955988    0.000000
    69  C1    c     0.557553    0.624477    0.754314    0.000000
    70  C1    c     0.503243    0.552878    0.710704    0.000000
    71  C1    c     0.420937    0.793855   -0.041366    0.000000
    72  C1    c     0.368727    0.755695    0.883162    0.000000
    73  C1    c     0.384073    0.774511    0.053526    0.000000
    74  C1    c     0.304437    0.718031    0.069854    0.000000
    75  C1    c     0.550861    0.780994    0.059454    0.000000
    76  C1    c     0.615791    0.734448    0.109298    0.000000
    77  C1    c     0.464389    0.757049    0.110856    0.000000
    78  C1    c     0.464024    0.687951    0.183949    0.000000
    79  C1    c     0.284058    0.699114    0.899150    0.000000
    80  C1    c     0.252336    0.679535   -0.009134    0.000000
    81  C1    c     0.279085    0.626760    0.828744    0.000000
    82  C1    c     0.245564    0.536826    0.853665    0.000000
    83  C1    c     0.358360    0.636619    0.763890    0.000000
    84  C1    c     0.399948    0.557376    0.720084    0.000000
    85  C1    c     0.213106    0.588090    0.015486    0.000000
    86  C1    c     0.209113    0.516339    0.947163    0.000000
    87  C1    c     0.253094    0.566823    0.106984    0.000000
    88  C1    c     0.284932    0.475730    0.129397    0.000000
    89  C1    c     0.303533    0.647565    0.143831    0.000000
    90  C1    c     0.380762    0.633842    0.204200    0.000000
    91  C1    c     0.244623    0.422611    0.970310    0.000000
    92  C1    c     0.280651    0.401893    0.060513    0.000000
    93  C1    c     0.293946    0.384206    0.889491    0.000000
    94  C1    c     0.371805    0.324177    0.901363    0.000000
    95  C1    c     0.292538    0.454579    0.816145    0.000000
    96  C1    c     0.366865    0.464470    0.751788    0.000000
    97  C1    c     0.364215    0.342095    0.072438    0.000000
    98  C1    c     0.411553    0.302603    0.994278    0.000000
    99  C1    c     0.417551    0.386749    0.146696    0.000000
   100  C1    c     0.516882    0.389903    0.143461    0.000000
   101  C1    c     0.365624    0.462359    0.191330    0.000000
   102  C1    c     0.412067    0.539423    0.234021    0.000000
   103  C1    c     0.518423    0.303960    0.989044    0.000000
   104  C1    c     0.568840    0.350253    0.063127    0.000000
   105  C1    c     0.537681    0.308189    0.886444    0.000000
   106  C1    c     0.601707    0.352768    0.833380    0.000000
   107  C1    c     0.448967    0.335673    0.838563    0.000000
   108  C1    c     0.447627    0.405245    0.765789    0.000000
   109  C1    c     0.652966    0.414329    0.058406    0.000000
   110  C1    c     0.700824    0.435880    0.982660    0.000000
   111  C1    c     0.644851    0.486107    0.130065    0.000000
   112  C1    c     0.676833    0.579474    0.114046    0.000000
   113  C1    c     0.565333    0.466021    0.190890    0.000000
   114  C1    c     0.516040    0.539516    0.237212    0.000000
   115  C1    c     0.707202    0.474236    0.903524    0.000000
   116  C1    c     0.717511    0.610574    1.035164    0.000000
   117  C1    c     0.613320    0.432044    0.783210    0.000000
   118  C1    c     0.530772    0.455891    0.731840    0.000000
   119  C1    c     0.627950    0.655018    0.158494    0.000000
   120  C1    c     0.546844    0.634713    0.213637    0.000000
   121  C1    c     0.683628    0.170149    0.467122    0.000000
   122  C1    c     0.649190    0.187922    0.558229    0.000000
   123  C1    c     0.634241    0.209819    0.386325    0.000000
   124  C1    c     0.556810    0.270863    0.398284    0.000000
   125  C1    c     0.684364    0.057820    0.348413    0.000000
   126  C1    c     0.650381    0.967794    0.320451    0.000000
   127  C1    c     0.719941    0.077656    0.444707    0.000000
   128  C1    c     0.716585    0.002351    0.514146    0.000000
   129  C1    c     0.634910    0.140513    0.311759    0.000000
   130  C1    c     0.557738    0.130997    0.249397    0.000000
   131  C1    c     0.569558    0.252545    0.570262    0.000000
   132  C1    c     0.524308    0.297408    0.492954    0.000000
   133  C1    c     0.514202    0.207192    0.642744    0.000000
   134  C1    c     0.415439    0.210322    0.639455    0.000000
   135  C1    c     0.642637    0.110566    0.624941    0.000000
   136  C1    c     0.672983    0.017235    0.602829    0.000000
   137  C1    c     0.561051    0.127710    0.685058    0.000000
   138  C1    c     0.509282    0.053382    0.725889    0.000000
   139  C1    c     0.419779    0.300952    0.489193    0.000000
   140  C1    c     0.368070    0.258524    0.563275    0.000000
   141  C1    c     0.390056    0.277067    0.392516    0.000000
   142  C1    c     0.310339    0.219934    0.375460    0.000000
   143  C1    c     0.474911    0.256027    0.339881    0.000000
   144  C1    c     0.474844    0.187498    0.267417    0.000000
   145  C1    c     0.285944    0.199087    0.546528    0.000000
   146  C1    c     0.256665    0.180505    0.453762    0.000000
   147  C1    c     0.279888    0.126741    0.617409    0.000000
   148  C1    c     0.245184    0.036810    0.593515    0.000000
   149  C1    c     0.360226    0.135945    0.681404    0.000000
   150  C1    c     0.405167    0.056904    0.722794    0.000000
   151  C1    c     0.215960    0.089826    0.429362    0.000000
   152  C1    c     0.210385    1.018032    0.498458    0.000000
   153  C1    c     0.255841    0.069666    0.337021    0.000000
   154  C1    c     0.286506    0.977748    0.315612    0.000000
   155  C1    c     0.309354    0.149979    0.300732    0.000000
   156  C1    c     0.389656    0.135814    0.243526    0.000000
   157  C1    c     0.246234    0.924384    0.476014    0.000000
   158  C1    c     0.281191    0.903952    0.385339    0.000000
   159  C1    c     0.295095    0.884599    0.556843    0.000000
   160  C1    c     0.371792    0.822709    0.545578    0.000000
   161  C1    c     0.294335    0.954352    0.630909    0.000000
   162  C1    c     0.371505    0.963586    0.693180    0.000000
   163  C1    c     0.362695    0.841507    0.374803    0.000000
   164  C1    c     0.408279    0.797896    0.452115    0.000000
   165  C1    c     0.417239    0.887383    0.302662    0.000000
   166  C1    c     0.515942    0.885152    0.306528    0.000000
   167  C1    c     0.369174    0.964151    0.256152    0.000000
   168  C1    c     0.419704    1.040373    0.216047    0.000000
   169  C1    c     0.514099    0.794036    0.457300    0.000000
   170  C1    c     0.565134    0.836811    0.383319    0.000000
   171  C1    c     0.538971    0.806433    0.557350    0.000000
   172  C1    c     0.606951    0.857313    0.598785    0.000000
   173  C1    c     0.451530    0.833454    0.606055    0.000000
   174  C1    c     0.453822    0.905163    0.676556    0.000000
   175  C1    c     0.650697    0.892687    0.389560    0.000000
   176  C1    c     0.696579    0.924624    0.464476    0.000000
   177  C1    c     0.568741    0.959067    0.260459    0.000000
   178  C1    c     0.523765    0.037716    0.219115    0.000000
   179  C1    c     0.622401    0.939736    0.643417    0.000000
   180  C1    c     0.539561    0.958365    0.700478    0.000000
   181  C1    c     0.069327    0.761434    0.386349    0.000000
   182  C1    c     0.017938    0.800160    0.462930    0.000000
   183  C1    c     0.021562    0.718874    0.306841    0.000000
   184  C1    c     0.922553    0.717332    0.304153    0.000000
   185  C1    c     0.152021    0.628055    0.329942    0.000000
   186  C1    c     0.183522    0.536648    0.351293    0.000000
   187  C1    c     0.149749    0.699093    0.401951    0.000000
   188  C1    c     0.178580    0.676528    0.493906    0.000000
   189  C1    c     0.073649    0.641997    0.264725    0.000000
   190  C1    c     0.027274    0.564564    0.221624    0.000000
   191  C1    c     0.914213    0.798464    0.459812    0.000000
   192  C1    c     0.868747    0.758480    0.380306    0.000000
   193  C1    c     0.879052    0.769302    0.552867    0.000000
   194  C1    c     0.798490    0.712377    0.562731    0.000000
   195  C1    c     0.045640    0.770743    0.558284    0.000000
   196  C1    c     0.125196    0.713812    0.573287    0.000000
   197  C1    c     0.960652    0.746653    0.609944    0.000000
   198  C1    c     0.958699    0.675284    0.681172    0.000000
   199  C1    c     0.788109    0.695456    0.391327    0.000000
   200  C1    c     0.750114    0.674516    0.480384    0.000000
   201  C1    c     0.795075    0.623170    0.321708    0.000000
   202  C1    c     0.762381    0.531919    0.339770    0.000000
   203  C1    c     0.874654    0.639109    0.259710    0.000000
   204  C1    c     0.923415    0.563078    0.217570    0.000000
   205  C1    c     0.713024    0.580229    0.499096    0.000000
   206  C1    c     0.718017    0.509723    0.428673    0.000000
   207  C1    c     0.747159    0.556868    0.592956    0.000000
   208  C1    c     0.777673    0.463252    0.611949    0.000000
   209  C1    c     0.796141    0.639962    0.633915    0.000000
   210  C1    c     0.874372    0.624595    0.696987    0.000000
   211  C1    c     0.754451    0.415606    0.448622    0.000000
   212  C1    c     0.783252    0.392910    0.540393    0.000000
   213  C1    c     0.808276    0.377898    0.369551    0.000000
   214  C1    c     0.887424    0.319931    0.386118    0.000000
   215  C1    c     0.811743    0.452033    0.299208    0.000000
   216  C1    c     0.891298    0.467114    0.241674    0.000000
   217  C1    c     0.865651    0.333594    0.557876    0.000000
   218  C1    c     0.916681    0.292962    0.482163    0.000000
   219  C1    c     0.914045    0.377238    0.637825    0.000000
   220  C1    c     0.012820    0.377432    0.642150    0.000000
   221  C1    c     0.855677    0.448969    0.679014    0.000000
   222  C1    c     0.877521    0.531729    0.717093    0.000000
   223  C1    c     0.020768    0.294089    0.486019    0.000000
   224  C1    c     0.066586    0.334573    0.565153    0.000000
   225  C1    c     0.054577    0.323098    0.392346    0.000000
   226  C1    c     0.132800    0.383167    0.381722    0.000000
   227  C1    c     0.972901    0.342519    0.335124    0.000000
   228  C1    c     0.974727    0.413249    0.264816    0.000000
   229  C1    c     0.148647    0.395808    0.553323    0.000000
   230  C1    c     0.182647    0.419630    0.463465    0.000000
   231  C1    c     0.147389    0.465567    0.625374    0.000000
   232  C1    c     0.175313    0.559658    0.606454    0.000000
   233  C1    c     0.067086    0.449850    0.689112    0.000000
   234  C1    c     0.041126    0.532612    0.725214    0.000000
   235  C1    c     0.219342    0.513695    0.444424    0.000000
   236  C1    c     0.215727    0.583505    0.515353    0.000000
   237  C1    c     0.133885    0.456398    0.311438    0.000000
   238  C1    c     0.057830    0.469555    0.249272    0.000000
   239  C1    c     0.123292    0.641562    0.644291    0.000000
   240  C1    c     0.042412    0.625440    0.703305    0.000000
--------------------------------------------------------------------------------

  Final Cartesian lattice vectors (Angstroms) :

       14.400000    0.000000    0.000000
        0.000000   14.400000    0.000000
        0.000000    0.000000   14.400000


  Final cell parameters and derivatives :

--------------------------------------------------------------------------------
       a           14.400000 Angstrom     dE/de1(xx)     0.000000 eV/strain
       b           14.400000 Angstrom     dE/de2(yy)     0.000000 eV/strain
       c           14.400000 Angstrom     dE/de3(zz)     0.000000 eV/strain
       alpha       90.000000 Degrees      dE/de4(yz)     0.000000 eV/strain
       beta        90.000000 Degrees      dE/de5(xz)     0.000000 eV/strain
       gamma       90.000000 Degrees      dE/de6(xy)     0.000000 eV/strain
--------------------------------------------------------------------------------

  Primitive cell volume =          2985.984000 Angs**3

  Density of cell =      1.603054 g/cm**3

  Non-primitive cell volume =          2985.984000 Angs**3


  Final internal derivatives :

--------------------------------------------------------------------------------
   No.  Atomic          a             b             c           Radius
        Label          (eV)          (eV)          (eV)        (eV/Angs)
--------------------------------------------------------------------------------
      1 C1    c       0.000000      0.000000      0.000000      0.000000
      2 C1    c      -0.003234      0.011027      0.025803      0.000000
      3 C1    c       0.010649     -0.015425     -0.028923      0.000000
      4 C1    c      -0.009047      0.006859      0.018149      0.000000
      5 C1    c       0.005716      0.009021     -0.038987      0.000000
      6 C1    c       0.006191     -0.035262     -0.012576      0.000000
      7 C1    c       0.007118     -0.026842     -0.030166      0.000000
      8 C1    c      -0.019388     -0.004938     -0.002622      0.000000
      9 C1    c       0.020807      0.019936     -0.026925      0.000000
     10 C1    c      -0.007205     -0.033714     -0.008892      0.000000
     11 C1    c       0.005898      0.011520      0.001000      0.000000
     12 C1    c      -0.007189     -0.001649     -0.000770      0.000000
     13 C1    c      -0.009059     -0.011289      0.003649      0.000000
     14 C1    c       0.001250     -0.004319      0.000084      0.000000
     15 C1    c       0.011095      0.041825      0.029382      0.000000
     16 C1    c      -0.005294      0.009880     -0.011279      0.000000
     17 C1    c      -0.004308      0.026263      0.013317      0.000000
     18 C1    c      -0.002922      0.020942      0.009000      0.000000
     19 C1    c      -0.000390      0.012123     -0.008264      0.000000
     20 C1    c      -0.002396     -0.015653      0.009986      0.000000
     21 C1    c      -0.006513      0.000636      0.005774      0.000000
     22 C1    c      -0.025018     -0.029555     -0.016502      0.000000
     23 C1    c       0.006309     -0.007450     -0.023201      0.000000
     24 C1    c       0.003916     -0.018610      0.021649      0.000000
     25 C1    c       0.002134      0.004316      0.049980      0.000000
     26 C1    c      -0.001616     -0.021038     -0.001911      0.000000
     27 C1    c       0.002651      0.025124      0.031315      0.000000
     28 C1    c      -0.009241     -0.031734      0.026848      0.000000
     29 C1    c       0.005737      0.024079      0.006843      0.000000
     30 C1    c      -0.015099      0.002643      0.012482      0.000000
     31 C1    c      -0.004256     -0.025783     -0.000595      0.000000
     32 C1    c      -0.023030     -0.027468      0.041546      0.000000
     33 C1    c       0.001503     -0.026247      0.016200      0.000000
     34 C1    c      -0.017248     -0.066714     -0.023205      0.000000
     35 C1    c      -0.043115     -0.017919     -0.009801      0.000000
     36 C1    c      -0.010438     -0.055350     -0.017269      0.000000
     37 C1    c      -0.014863     -0.038685      0.031894      0.000000
     38 C1    c       0.002969     -0.044958     -0.024016      0.000000
     39 C1    c       0.010785     -0.019300      0.026546      0.000000
     40 C1    c      -0.005287      0.003857     -0.023438      0.000000
     41 C1    c       0.007268     -0.024450      0.029404      0.000000
     42 C1    c      -0.012800      0.009547      0.012669      0.000000
     43 C1    c      -0.009465     -0.017809      0.001129      0.000000
     44 C1    c      -0.003712     -0.011133      0.018591      0.000000
     45 C1    c       0.002941     -0.021853      0.012412      0.000000
     46 C1    c      -0.007119     -0.031756      0.009094      0.000000
     47 C1    c      -0.006274     -0.036929     -0.009954      0.000000
     48 C1    c      -0.012853     -0.050298     -0.010979      0.000000
     49 C1    c      -0.005885     -0.021419      0.000749      0.000000
     50 C1    c      -0.018860      0.005434      0.000034      0.000000
     51 C1    c      -0.004476     -0.011114      0.014993      0.000000
     52 C1    c       0.035539     -0.004699      0.024976      0.000000
     53 C1    c       0.018045      0.020875      0.019188      0.000000
     54 C1    c       0.003636     -0.006799     -0.021148      0.000000
     55 C1    c      -0.003174      0.007625     -0.039726      0.000000
     56 C1    c       0.005052      0.001150      0.016024      0.000000
     57 C1    c      -0.015682     -0.027904     -0.006042      0.000000
     58 C1    c       0.013204     -0.034564     -0.016733      0.000000
     59 C1    c       0.033419     -0.006913     -0.018722      0.000000
     60 C1    c      -0.017030      0.011702      0.012082      0.000000
     61 C1    c       0.026371     -0.034059      0.012023      0.000000
     62 C1    c       0.025773     -0.039795      0.121391      0.000000
     63 C1    c      -0.089359      0.013467     -0.081689      0.000000
     64 C1    c       0.068885      0.037533      0.007644      0.000000
     65 C1    c      -0.064154     -0.015022      0.034982      0.000000
     66 C1    c       0.024108     -0.096559      0.053157      0.000000
     67 C1    c      -0.056355     -0.090560      0.106353      0.000000
     68 C1    c      -0.022836     -0.000787     -0.003414      0.000000
     69 C1    c      -0.038586     -0.012401      0.035589      0.000000
     70 C1    c      -0.030925     -0.009634     -0.016317      0.000000
     71 C1    c      -0.000153      0.008004      0.038357      0.000000
     72 C1    c       0.013431     -0.010272      0.055055      0.000000
     73 C1    c       0.131523      0.049709      0.010459      0.000000
     74 C1    c      -0.030126     -0.086839      0.006472      0.000000
     75 C1    c       0.034897      0.072316      0.002178      0.000000
     76 C1    c       0.064384     -0.105635     -0.007379      0.000000
     77 C1    c       0.068001      0.007422      0.021572      0.000000
     78 C1    c      -0.065935     -0.047251      0.067997      0.000000
     79 C1    c       0.050633      0.074784      0.082240      0.000000
     80 C1    c       0.010696      0.054147      0.065436      0.000000
     81 C1    c       0.064685      0.088336     -0.022307      0.000000
     82 C1    c      -0.015659      0.009268      0.021751      0.000000
     83 C1    c      -0.046852      0.100865      0.060735      0.000000
     84 C1    c      -0.020417      0.032858      0.024182      0.000000
     85 C1    c      -0.020585      0.054870      0.101700      0.000000
     86 C1    c      -0.025129     -0.012908     -0.005991      0.000000
     87 C1    c      -0.001402      0.033815     -0.013081      0.000000
     88 C1    c       0.032430     -0.074398     -0.000702      0.000000
     89 C1    c      -0.026810     -0.020961     -0.022329      0.000000
     90 C1    c       0.118143      0.044395      0.032317      0.000000
     91 C1    c      -0.033315      0.049190     -0.096878      0.000000
     92 C1    c       0.071083     -0.013307      0.042237      0.000000
     93 C1    c      -0.087639      0.084180      0.016878      0.000000
     94 C1    c       0.038206     -0.009675     -0.056813      0.000000
     95 C1    c      -0.104056      0.109200      0.125282      0.000000
     96 C1    c       0.075741      0.113098     -0.051868      0.000000
     97 C1    c       0.015744      0.070566      0.036746      0.000000
     98 C1    c       0.039729     -0.018738     -0.121921      0.000000
     99 C1    c       0.006337     -0.099190     -0.031888      0.000000
    100 C1    c       0.032099      0.007650      0.015736      0.000000
    101 C1    c       0.000859     -0.096166     -0.060811      0.000000
    102 C1    c       0.034553     -0.084885      0.017793      0.000000
    103 C1    c      -0.030791     -0.002168     -0.051466      0.000000
    104 C1    c       0.042532      0.007986     -0.059527      0.000000
    105 C1    c       0.011090      0.020079     -0.032108      0.000000
    106 C1    c      -0.046500     -0.039746     -0.017138      0.000000
    107 C1    c      -0.070156     -0.031125     -0.041259      0.000000
    108 C1    c      -0.042388      0.018273     -0.076880      0.000000
    109 C1    c      -0.064811     -0.016165     -0.111614      0.000000
    110 C1    c      -0.024236     -0.098094      0.103033      0.000000
    111 C1    c      -0.040833     -0.092624      0.021471      0.000000
    112 C1    c       0.039995      0.025580     -0.021870      0.000000
    113 C1    c       0.063812     -0.073209     -0.094119      0.000000
    114 C1    c       0.051990      0.025073      0.017549      0.000000
    115 C1    c      -0.051191     -0.011999     -0.154507      0.000000
    116 C1    c      -0.000798     -0.023243      0.045115      0.000000
    117 C1    c      -0.047038     -0.027552     -0.051258      0.000000
    118 C1    c      -0.045275     -0.033931     -0.016916      0.000000
    119 C1    c       0.054605     -0.088758      0.040921      0.000000
    120 C1    c      -0.000770     -0.151243      0.040173      0.000000
    121 C1    c       0.014004      0.007267     -0.033160      0.000000
    122 C1    c      -0.051282      0.019013      0.009007      0.000000
    123 C1    c       0.019044     -0.045650     -0.018241      0.000000
    124 C1    c      -0.053814      0.029172     -0.011476      0.000000
    125 C1    c       0.011765     -0.018651     -0.006293      0.000000
    126 C1    c      -0.008818     -0.016059      0.011265      0.000000
    127 C1    c       0.039773      0.039035     -0.020343      0.000000
    128 C1    c       0.023543     -0.007165      0.025681      0.000000
    129 C1    c       0.044954      0.001776      0.050600      0.000000
    130 C1    c      -0.010730     -0.013686     -0.016967      0.000000
    131 C1    c       0.029882     -0.001414     -0.018237      0.000000
    132 C1    c       0.020603      0.020035     -0.068320      0.000000
    133 C1    c      -0.003784      0.056337      0.015789      0.000000
    134 C1    c      -0.000687      0.074208     -0.044933      0.000000
    135 C1    c      -0.028822      0.063160      0.002892      0.000000
    136 C1    c      -0.021571      0.074622     -0.002137      0.000000
    137 C1    c      -0.042233      0.036749     -0.035003      0.000000
    138 C1    c      -0.012955      0.048014      0.002836      0.000000
    139 C1    c       0.014618      0.028758     -0.070872      0.000000
    140 C1    c      -0.013824     -0.008845     -0.015610      0.000000
    141 C1    c       0.065028      0.046654     -0.022925      0.000000
    142 C1    c      -0.046501     -0.071075     -0.055319      0.000000
    143 C1    c       0.010815      0.037718     -0.050914      0.000000
    144 C1    c       0.019129      0.011784     -0.026283      0.000000
    145 C1    c       0.048882      0.032849      0.017751      0.000000
    146 C1    c      -0.015608     -0.009639     -0.084142      0.000000
    147 C1    c       0.021559      0.074846      0.004438      0.000000
    148 C1    c       0.001987      0.010103      0.004132      0.000000
    149 C1    c      -0.035494      0.069041     -0.045498      0.000000
    150 C1    c      -0.017507      0.040473      0.001602      0.000000
    151 C1    c      -0.010057      0.038654     -0.065425      0.000000
    152 C1    c      -0.027806     -0.019284      0.022714      0.000000
    153 C1    c       0.001295      0.013323      0.009154      0.000000
    154 C1    c       0.045879     -0.023275     -0.005637      0.000000
    155 C1    c      -0.050117     -0.008890      0.069131      0.000000
    156 C1    c       0.066556     -0.054779     -0.054517      0.000000
    157 C1    c       0.010116     -0.017593      0.018937      0.000000
    158 C1    c       0.047616     -0.022878     -0.003675      0.000000
    159 C1    c      -0.008609      0.074308      0.018131      0.000000
    160 C1    c       0.058410     -0.003614     -0.001560      0.000000
    161 C1    c      -0.022787      0.035309     -0.056324      0.000000
    162 C1    c       0.041078      0.058504      0.011642      0.000000
    163 C1    c       0.003539      0.000829      0.018353      0.000000
    164 C1    c       0.002276      0.010350      0.036463      0.000000
    165 C1    c       0.028972     -0.029323     -0.064126      0.000000
    166 C1    c      -0.010969     -0.034935     -0.034110      0.000000
    167 C1    c       0.016158     -0.026536      0.002617      0.000000
    168 C1    c       0.014761      0.000531     -0.000073      0.000000
    169 C1    c       0.014031      0.017116      0.019517      0.000000
    170 C1    c       0.006108     -0.017263      0.023666      0.000000
    171 C1    c       0.039694     -0.000307      0.032114      0.000000
    172 C1    c       0.036089      0.050027      0.012529      0.000000
    173 C1    c       0.009883     -0.019468      0.045763      0.000000
    174 C1    c       0.003578      0.035180      0.024949      0.000000
    175 C1    c      -0.018179     -0.003405      0.033991      0.000000
    176 C1    c      -0.024172     -0.012822      0.019860      0.000000
    177 C1    c       0.031179     -0.046796      0.019398      0.000000
    178 C1    c       0.013846      0.000716     -0.007250      0.000000
    179 C1    c       0.020797      0.076118      0.026394      0.000000
    180 C1    c      -0.019177      0.056299     -0.000213      0.000000
    181 C1    c      -0.010360      0.012208     -0.021189      0.000000
    182 C1    c      -0.008087      0.015452     -0.031220      0.000000
    183 C1    c       0.005429     -0.002340     -0.015636      0.000000
    184 C1    c       0.020561     -0.002947     -0.013841      0.000000
    185 C1    c       0.025022      0.054182     -0.018233      0.000000
    186 C1    c       0.020137     -0.007502     -0.028997      0.000000
    187 C1    c       0.013637      0.012353     -0.061177      0.000000
    188 C1    c       0.005157      0.025501      0.004409      0.000000
    189 C1    c      -0.003088      0.026132     -0.013110      0.000000
    190 C1    c       0.013554      0.009887     -0.018505      0.000000
    191 C1    c      -0.000410      0.014871     -0.034010      0.000000
    192 C1    c       0.010032      0.005373     -0.012299      0.000000
    193 C1    c      -0.023755      0.005551     -0.031235      0.000000
    194 C1    c      -0.018966      0.034258      0.015651      0.000000
    195 C1    c       0.000894      0.034996     -0.020554      0.000000
    196 C1    c       0.019938      0.018377      0.028042      0.000000
    197 C1    c      -0.007935      0.005398     -0.004561      0.000000
    198 C1    c      -0.040276      0.011185     -0.018541      0.000000
    199 C1    c       0.000134      0.000002     -0.032838      0.000000
    200 C1    c       0.015839      0.023771      0.001537      0.000000
    201 C1    c      -0.022642      0.030001     -0.016651      0.000000
    202 C1    c      -0.001022      0.000978     -0.000840      0.000000
    203 C1    c       0.039376     -0.000680     -0.017880      0.000000
    204 C1    c       0.012664      0.008432      0.003318      0.000000
    205 C1    c      -0.002056      0.011176      0.005946      0.000000
    206 C1    c       0.008377      0.007375      0.009432      0.000000
    207 C1    c      -0.010137      0.019015      0.039110      0.000000
    208 C1    c      -0.014679     -0.030191      0.013759      0.000000
    209 C1    c      -0.050311      0.054258      0.011978      0.000000
    210 C1    c      -0.036442      0.022771      0.015960      0.000000
    211 C1    c      -0.000218     -0.002248      0.002849      0.000000
    212 C1    c      -0.012993      0.002471      0.047821      0.000000
    213 C1    c      -0.005698      0.005040     -0.027020      0.000000
    214 C1    c       0.009634     -0.016908      0.009743      0.000000
    215 C1    c      -0.022269     -0.052696      0.010027      0.000000
    216 C1    c       0.023213      0.031835      0.000197      0.000000
    217 C1    c       0.027285     -0.002162      0.028809      0.000000
    218 C1    c       0.010870     -0.016504      0.024111      0.000000
    219 C1    c      -0.013677     -0.004431      0.011438      0.000000
    220 C1    c      -0.006776      0.002577      0.032681      0.000000
    221 C1    c       0.000983     -0.003607      0.021669      0.000000
    222 C1    c      -0.014689      0.006241     -0.009987      0.000000
    223 C1    c       0.003711     -0.005581      0.015487      0.000000
    224 C1    c      -0.011195      0.003846      0.032621      0.000000
    225 C1    c       0.014050      0.002631      0.042715      0.000000
    226 C1    c       0.015527     -0.004590     -0.019858      0.000000
    227 C1    c       0.002835     -0.004113      0.001835      0.000000
    228 C1    c       0.027325     -0.016620      0.009827      0.000000
    229 C1    c      -0.002299     -0.004446      0.050239      0.000000
    230 C1    c      -0.013761     -0.000324     -0.006083      0.000000
    231 C1    c      -0.003488     -0.038249      0.005047      0.000000
    232 C1    c       0.005965      0.025755      0.005334      0.000000
    233 C1    c       0.000665      0.010052      0.030848      0.000000
    234 C1    c       0.003382      0.006089     -0.015799      0.000000
    235 C1    c      -0.004317     -0.007453     -0.013338      0.000000
    236 C1    c      -0.000953      0.021478      0.005735      0.000000
    237 C1    c       0.039180     -0.036675     -0.010202      0.000000
    238 C1    c       0.028988     -0.003873     -0.010790      0.000000
    239 C1    c       0.017418      0.050920     -0.028148      0.000000
    240 C1    c      -0.004048     -0.014930      0.006873      0.000000
--------------------------------------------------------------------------------
  Maximum abs         0.131523      0.151243      0.154507      0.000000
--------------------------------------------------------------------------------

  Comparison of initial and final structures : 

--------------------------------------------------------------------------------
  Parameter   Initial value   Final value   Difference    Units      Percent
--------------------------------------------------------------------------------
    Volume      2985.984000   2985.984000     0.000000    Angs**3      0.00
    a             14.400000     14.400000     0.000000    Angstroms    0.00
    b             14.400000     14.400000     0.000000    Angstroms    0.00
    c             14.400000     14.400000     0.000000    Angstroms    0.00
    alpha         90.000000     90.000000     0.000000    Degrees      0.00
    beta          90.000000     90.000000     0.000000    Degrees      0.00
    gamma         90.000000     90.000000     0.000000    Degrees      0.00
      1 x          0.172722      0.172722     0.000000    Fractional   0.00
      1 y          0.180583      0.180583     0.000000    Fractional   0.00
      1 z          0.951979      0.951979     0.000000    Fractional   0.00
      2 x          0.147653      0.144353     0.003300    Fractional   2.23
      2 y          0.203910      0.200630     0.003280    Fractional   1.61
      2 z          0.057014      0.044907     0.012107    Fractional  21.23
      3 x          0.114965      0.118552     0.003587    Fractional   3.12
      3 y          0.216000      0.218621     0.002621    Fractional   1.21
      3 z          0.873653      0.873097     0.000556    Fractional   0.06
      4 x          0.033514      0.038347     0.004833    Fractional  14.42
      4 y          0.270479      0.274803     0.004324    Fractional   1.60
      4 z          0.891590      0.890403     0.001188    Fractional   0.13
      5 x          0.171729      0.171913     0.000184    Fractional   0.11
      5 y          0.062167      0.067720     0.005553    Fractional   8.93
      5 z          0.836785      0.836033     0.000752    Fractional   0.09
      6 x          0.149063      0.141974     0.007088    Fractional   4.76
      6 y          0.959757      0.975615     0.015858    Fractional   1.65
      6 z          0.815042      0.814589     0.000453    Fractional   0.06
      7 x          0.207806      0.212196     0.004391    Fractional   2.11
      7 y          0.086424      0.089179     0.002756    Fractional   3.19
      7 z          0.929958      0.927864     0.002094    Fractional   0.23
      8 x          0.221375      0.218287     0.003088    Fractional   1.39
      8 y          0.017618      0.017979     0.000361    Fractional   2.05
      8 z          0.007660     -0.002515     0.010175    Fractional   1.01
      9 x          0.118042      0.118405     0.000363    Fractional   0.31
      9 y          0.141646      0.147512     0.005866    Fractional   4.14
      9 z          0.798896      0.799338     0.000442    Fractional   0.06
     10 x          0.035583      0.037650     0.002066    Fractional   5.81
     10 y          0.123625      0.131903     0.008278    Fractional   6.70
     10 z          0.744812      0.743264     0.001548    Fractional   0.21
     11 x          0.059792      0.061963     0.002172    Fractional   3.63
     11 y          0.254576      0.259950     0.005374    Fractional   2.11
     11 z          0.076264      0.061913     0.014351    Fractional  18.82
     12 x          0.002694      0.009520     0.006826    Fractional 253.33
     12 y          0.289958      0.299772     0.009814    Fractional   3.38
     12 z          0.993181      0.986864     0.006316    Fractional   0.64
     13 x          0.015389      0.014355     0.001034    Fractional   6.72
     13 y          0.215590      0.214186     0.001404    Fractional   0.65
     13 z          0.161007      0.139653     0.021354    Fractional  13.26
     14 x          0.907625      0.915136     0.007511    Fractional   0.83
     14 y          0.209361      0.211680     0.002319    Fractional   1.11
     14 z          0.170382      0.143380     0.027002    Fractional  15.85
     15 x          0.161431      0.149938     0.011493    Fractional   7.12
     15 y          0.131146      0.128468     0.002678    Fractional   2.04
     15 z          0.132778      0.116359     0.016418    Fractional  12.37
     16 x          0.198146      0.184292     0.013854    Fractional   6.99
     16 y          0.038826      0.038133     0.000693    Fractional   1.78
     16 z          0.107785      0.092658     0.015127    Fractional  14.03
     17 x          0.073549      0.069480     0.004069    Fractional   5.53
     17 y          0.137792      0.138756     0.000964    Fractional   0.70
     17 z          0.191653      0.180541     0.011112    Fractional   5.80
     18 x          0.031403      0.024128     0.007275    Fractional  23.17
     18 y          0.053937      0.059659     0.005721    Fractional  10.61
     18 z          0.227938      0.221831     0.006107    Fractional   2.68
     19 x          0.893340      0.905544     0.012204    Fractional   1.37
     19 y          0.278500      0.295286     0.016786    Fractional   6.03
     19 z          0.005438     -0.009527     0.014964    Fractional   1.49
     20 x          0.848743      0.859550     0.010807    Fractional   1.27
     20 y          0.240340      0.254112     0.013772    Fractional   5.73
     20 z          0.088097      0.069211     0.018886    Fractional  21.44
     21 x          0.857986      0.870803     0.012816    Fractional   1.49
     21 y          0.253104      0.268447     0.015343    Fractional   6.06
     21 z          0.905396      0.896658     0.008738    Fractional   0.97
     22 x          0.781431      0.791597     0.010167    Fractional   1.30
     22 y          0.188542      0.209567     0.021026    Fractional  11.15
     22 z          0.896632      0.884762     0.011870    Fractional   1.32
     23 x          0.938931      0.952989     0.014059    Fractional   1.50
     23 y          0.249590      0.252169     0.002579    Fractional   1.03
     23 z          0.838465      0.839199     0.000734    Fractional   0.09
     24 x          0.940479      0.952561     0.012081    Fractional   1.28
     24 y          0.177889      0.182542     0.004654    Fractional   2.62
     24 z          0.766444      0.768077     0.001633    Fractional   0.21
     25 x          0.765514      0.777236     0.011722    Fractional   1.53
     25 y          0.178479      0.192325     0.013846    Fractional   7.76
     25 z          0.080139      0.057454     0.022685    Fractional  28.31
     26 x          0.731722      0.741906     0.010184    Fractional   1.39
     26 y          0.153111      0.171164     0.018053    Fractional  11.79
     26 z          0.980354      0.966618     0.013736    Fractional   1.40
     27 x          0.779799      0.785690     0.005892    Fractional   0.76
     27 y          0.103618      0.117467     0.013849    Fractional  13.37
     27 z          0.150951      0.126332     0.024619    Fractional  16.31
     28 x          0.761201      0.756538     0.004663    Fractional   0.61
     28 y          0.009333      0.025142     0.015809    Fractional 169.38
     28 z          0.127062      0.104413     0.022649    Fractional  17.83
     29 x          0.863778      0.867784     0.004006    Fractional   0.46
     29 y          0.125438      0.132513     0.007075    Fractional   5.64
     29 z          0.210326      0.186663     0.023663    Fractional  11.25
     30 x          0.922104      0.919658     0.002446    Fractional   0.27
[...]
   560     1370.6097                0.0000841911             0.0000023565
   561     1371.2899                0.0000686782             0.0000019180
   562     1371.3544                0.0000390071             0.0000010891
   563     1374.5260                0.0000052546             0.0000001452
   564     1376.9317                0.0000046872             0.0000001284
   565     1377.8174                0.0000196264             0.0000005362
   566     1378.2420                0.0000143938             0.0000003927
   567     1380.4909                0.0000062650             0.0000001696
   568     1382.6666                0.0000043890             0.0000001180
   569     1386.1951                0.0000022353             0.0000000594
   570     1392.2613                0.0001045851             0.0000027219
   571     1392.4609                0.0000791864             0.0000020595
   572     1392.8609                0.0000540503             0.0000014039
   573     1394.6111                0.0000123761             0.0000003196
   574     1396.6258                0.0000097564             0.0000002502
   575     1396.8427                0.0000038413             0.0000000984
   576     1398.3843                0.0000114847             0.0000002928
   577     1399.4039                0.0000093675             0.0000002380
   578     1404.1218                0.0000802304             0.0000020061
   579     1404.4033                0.0000994213             0.0000024836
   580     1404.7869                0.0000460548             0.0000011490
   581     1406.6931                0.0002480029             0.0000061473
   582     1407.0284                0.0004625705             0.0000114529
   583     1407.3996                0.0004710874             0.0000116491
   584     1409.3996                0.0001417827             0.0000034824
   585     1409.9965                0.0001532319             0.0000037560
   586     1414.0154                0.0000318494             0.0000007701
   587     1414.7550                0.0000160633             0.0000003874
   588     1416.2256                0.0000443900             0.0000010653
   589     1417.2022                0.0000051323             0.0000001228
   590     1419.0240                0.0000260828             0.0000006200
   591     1420.3396                0.0000211258             0.0000005000
   592     1421.3502                0.0000241880             0.0000005705
   593     1424.4351                0.0001109051             0.0000025884
   594     1425.4990                0.0001000884             0.0000023275
   595     1426.0468                0.0000439083             0.0000010192
   596     1426.4006                0.0000385354             0.0000008934
   597     1428.9542                0.0000406402             0.0000009340
   598     1430.5554                0.0000074763             0.0000001709
   599     1430.8933                0.0000043063             0.0000000983
   600     1432.0646                0.0000126269             0.0000002871
   601     1434.9495                0.0001322015             0.0000029769
   602     1435.3251                0.0001275207             0.0000028678
   603     1438.7723                0.0000116490             0.0000002589
   604     1440.0974                0.0000373141             0.0000008256
   605     1441.2576                0.0000422870             0.0000009319
   606     1442.8157                0.0000589881             0.0000012931
   607     1443.0019                0.0000764964             0.0000016758
   608     1443.7639                0.0000464665             0.0000010153
   609     1444.2956                0.0000415697             0.0000009066
   610     1447.8747                0.0000452981             0.0000009759
   611     1447.9053                0.0000501475             0.0000010803
   612     1449.8570                0.0000223323             0.0000004779
   613     1450.3299                0.0000110542             0.0000002362
   614     1450.7957                0.0000306051             0.0000006528
   615     1452.3761                0.0000836007             0.0000017736
   616     1452.8850                0.0000431907             0.0000009147
   617     1453.0651                0.0000987726             0.0000020905
   618     1453.3652                0.0000832273             0.0000017597
   619     1455.2122                0.0000134793             0.0000002832
   620     1456.2698                0.0002135448             0.0000044702
   621     1456.3680                0.0002097668             0.0000043896
   622     1458.5422                0.0000655734             0.0000013620
   623     1458.9306                0.0001292826             0.0000026817
   624     1459.4350                0.0001073016             0.0000022219
   625     1461.3285                0.0000273977             0.0000005636
   626     1461.8399                0.0000292422             0.0000006005
   627     1463.5489                0.0000241588             0.0000004932
   628     1465.0284                0.0000194962             0.0000003960
   629     1466.2142                0.0000270441             0.0000005471
   630     1467.1150                0.0000150979             0.0000003045
   631     1468.4244                0.0000540190             0.0000010845
   632     1469.2436                0.0000598223             0.0000011977
   633     1469.7850                0.0000388853             0.0000007770
   634     1473.2231                0.0000134732             0.0000002661
   635     1474.8530                0.0000956078             0.0000018775
   636     1475.1780                0.0000830093             0.0000016282
   637     1475.6608                0.0000897443             0.0000017574
   638     1477.6753                0.0000186755             0.0000003632
   639     1478.5465                0.0000658651             0.0000012770
   640     1479.4110                0.0000647171             0.0000012510
   641     1481.5547                0.0000329294             0.0000006319
   642     1481.9655                0.0000246373             0.0000004721
   643     1482.6237                0.0000436692             0.0000008348
   644     1483.6878                0.0000513494             0.0000009781
   645     1484.6227                0.0000499448             0.0000009482
   646     1486.0356                0.0000514178             0.0000009715
   647     1486.3041                0.0001344161             0.0000025372
   648     1487.4882                0.0001024196             0.0000019253
   649     1488.3384                0.0000269203             0.0000005046
   650     1489.7298                0.0000247376             0.0000004614
   651     1490.4004                0.0000298334             0.0000005552
   652     1491.2390                0.0000336101             0.0000006237
   653     1492.2741                0.0000204647             0.0000003784
   654     1494.4148                0.0000285617             0.0000005242
   655     1495.7466                0.0000262219             0.0000004790
   656     1497.7263                0.0000878565             0.0000015940
   657     1497.8795                0.0000672486             0.0000012195
   658     1498.3372                0.0000830603             0.0000015038
   659     1498.6504                0.0000853893             0.0000015443
   660     1501.2540                0.0001196580             0.0000021446
   661     1501.6820                0.0001220291             0.0000021839
   662     1503.2133                0.0000314501             0.0000005599
   663     1503.7234                0.0000380231             0.0000006757
   664     1506.0229                0.0000285491             0.0000005033
   665     1507.3619                0.0000235496             0.0000004132
   666     1509.2750                0.0000066598             0.0000001161
   667     1510.6980                0.0000115782             0.0000002008
   668     1514.3137                0.0000775001             0.0000013274
   669     1514.8519                0.0000632262             0.0000010809
   670     1517.7332                0.0000279721             0.0000004734
   671     1520.3331                0.0000344276             0.0000005774
   672     1520.8501                0.0000324017             0.0000005425
   673     1521.5862                0.0000425227             0.0000007101
   674     1523.6185                0.0000140942             0.0000002337
   675     1524.8639                0.0000057596             0.0000000951
   676     1526.6098                0.0000152699             0.0000002506
   677     1530.1523                0.0000646279             0.0000010474
   678     1530.8192                0.0000793166             0.0000012825
   679     1532.3327                0.0000365749             0.0000005883
   680     1534.5741                0.0000161012             0.0000002569
   681     1536.4785                0.0000126364             0.0000002003
   682     1537.4379                0.0000343067             0.0000005420
   683     1540.0333                0.0000209906             0.0000003286
   684     1541.3046                0.0000337769             0.0000005265
   685     1542.7467                0.0000162792             0.0000002525
   686     1545.9877                0.0000078833             0.0000001209
   687     1553.6066                0.0000004900             0.0000000073
   688     1555.8462                0.0000004885             0.0000000072
   689     1559.9922                0.0000196871             0.0000002874
   690     1561.5920                0.0000419089             0.0000006083
   691     1562.8220                0.0001535991             0.0000022198
   692     1563.4952                0.0001737055             0.0000025044
   693     1565.3959                0.0000258290             0.0000003699
   694     1572.4005                0.0000018226             0.0000000255
   695     1575.3804                0.0000144722             0.0000002001
   696     1577.7605                0.0000278345             0.0000003816
   697     1579.4769                0.0000151831             0.0000002069
   698     1585.8977                0.0000069690             0.0000000928
   699     1587.1426                0.0000058039             0.0000000770
   700     1589.6637                0.0000179177             0.0000002355
   701     1590.8454                0.0000134994             0.0000001767
   702     1597.0287                0.0000040056             0.0000000513
   703     1598.8613                0.0000033220             0.0000000423
   704     1600.8777                0.0000013392             0.0000000169
   705     1607.7774                0.0000000000             0.0000000000
   706     1614.1655                0.0000779507             0.0000009392
   707     1616.6382                0.0000777125             0.0000009281
   708     1620.7009                0.0000000000             0.0000000000
   709     1625.5236                0.0000000000             0.0000000000
   710     1636.2145                0.0000299257             0.0000003333
   711     1637.7436                0.0000298698             0.0000003308
   712     1658.4111                0.0000000000             0.0000000000
   713     1755.0885                0.0000000102             0.0000000001
   714     1757.3538                0.0000000102             0.0000000001
   715     1777.3751                0.0000000000             0.0000000000
   716     1790.7462                0.0000000000             0.0000000000
   717     1816.3574                0.0000000000             0.0000000000
   718     1821.5952                0.0000000000             0.0000000000
   719     2140.7396                0.0000000000             0.0000000000
   720     2188.0218                0.0000000000             0.0000000000
--------------------------------------------------------------------------------
  Thermal conductivity (Allen-Feldman) =     0.114218 W/(m.K) 
--------------------------------------------------------------------------------

--------------------------------------------------------------------------------
  Phonon properties (per mole of unit cells): Temperature =    300.000 K
--------------------------------------------------------------------------------
  Zero point energy            =       41.756348 eV
  Entropy                      =        0.012841 eV/K
                               =     1238.996821 J/(mol.K)
  Helmholtz free-energy        =    -1895.189003 eV
                               =  -182856.752175 kJmol-1
  Free energy (equipartition)  =    -1910.363490 eV
  - T*S       (equipartition)  =        6.545001 eV
  Uvib        (equipartition)  =       18.535890 eV
  Mean kinetic energy          =       22.092674 eV
  Heat capacity - const volume =        0.019973 eV/K
                               =     1927.108688 J/(mol.K)
--------------------------------------------------------------------------------

  Phonon density of states : 

  Broadening factor =     0.5000

--------------------------------------------------------------------------------
 Frequency (cm-1) Density of States                                             
--------------------------------------------------------------------------------
    0.00000 |***                                                           0.003
   34.58084 |**********                                                    0.007
   69.16168 |*************                                                 0.010
  103.74252 |**********                                                    0.007
  138.32336 |****                                                          0.003
  172.90421 |***                                                           0.003
  207.48505 |******                                                        0.005
  242.06589 |*************                                                 0.010
  276.64673 |**************                                                0.010
  311.22757 |***********************                                       0.016
  345.80841 |***************************                                   0.019
  380.38925 |*****************************************                     0.028
  414.97009 |**********************************                            0.024
  449.55093 |*****************************                                 0.021
  484.13178 |*****************************                                 0.020
  518.71262 |*****************************                                 0.020
  553.29346 |**********************************                            0.024
  587.87430 |******************************                                0.021
  622.45514 |********************************************                  0.031
  657.03598 |******************************************                    0.029
  691.61682 |**************************************                        0.026
  726.19766 |******************************************                    0.030
  760.77850 |******************************************                    0.029
  795.35934 |***************************************                       0.027
  829.94019 |******************************                                0.021
  864.52103 |******************************                                0.021
  899.10187 |********************************************                  0.031
  933.68271 |*******************************************                   0.030
  968.26355 |***************************                                   0.019
 1002.84439 |************************                                      0.017
 1037.42523 |******************************                                0.021
 1072.00607 |*******************************************                   0.030
 1106.58691 |*********************************                             0.023
 1141.16776 |*****************************************                     0.028
 1175.74860 |***********************                                       0.017
 1210.32944 |*****************                                             0.012
 1244.91028 |************************                                      0.017
 1279.49112 |*******************************                               0.021
 1314.07196 |*************************                                     0.018
 1348.65280 |****************************************                      0.028
 1383.23364 |************************************                          0.025
 1417.81448 |***********************************************               0.033
 1452.39533 |***********************************************************   0.041
 1486.97617 |**********************************************************    0.041
 1521.55701 |***************************************                       0.027
 1556.13785 |*************************                                     0.017
 1590.71869 |*********************                                         0.015
 1625.29953 |************                                                  0.009
 1659.88037 |***                                                           0.003
 1694.46121 |                                                              0.001
 1729.04205 |*                                                             0.001
 1763.62289 |*****                                                         0.004
 1798.20374 |***                                                           0.003
 1832.78458 |**                                                            0.002
 1867.36542 |                                                              0.000
 1901.94626 |                                                              0.000
 1936.52710 |                                                              0.000
 1971.10794 |                                                              0.000
 2005.68878 |                                                              0.000
 2040.26962 |                                                              0.000
 2074.85046 |                                                              0.000
 2109.43131 |                                                              0.000
 2144.01215 |**                                                            0.001
 2178.59299 |*                                                             0.001
--------------------------------------------------------------------------------



  Time to end of optimisation =      28.3644 seconds


  Peak dynamic memory used =      11.62 MB 


  Timing analysis for GULP :

--------------------------------------------------------------------------------
  Task / Subroutine                                          Time (Seconds)
--------------------------------------------------------------------------------
  Calculation of real space energy and derivatives               15.4345
  Calculation of Bond Order energy and derivatives                3.2361
  Calculation of molecules and connectivity                       0.7905
  Calculation of phonons                                          6.0378
  Calculation of scattering                                       0.0000
  Calculation of matrix inversion                                 2.5166
  Disk read/write operations to scratch files                     0.0046
  Global summation overhead                                       0.0003
--------------------------------------------------------------------------------
  Total CPU time                                                 28.3645
--------------------------------------------------------------------------------


  LAMMPS file written on channel 26


  Job Finished at 20:08.52 15th September  2013                               

