88
Atoms. Timestep: 0
1 50.993 53.067 57.215
1 50.595 52.5063 56.0206
1 49.4962 51.4944 56.0056
1 48.8633 51.0699 57.2158
1 49.2892 51.6701 58.4942
1 50.3225 52.6588 58.4859
1 50.1964 53.8585 59.3488
1 50.7613 55.0146 58.6176
1 51.2406 54.5381 57.2972
1 51.1018 55.3791 56.1492
1 50.6759 54.7791 54.8709
1 50.4146 53.3743 54.818
1 49.2426 52.8745 54.0586
1 48.6775 51.7181 54.7893
1 47.2578 51.5172 54.8284
1 46.6039 51.0898 56.0892
1 47.3951 50.8697 57.2644
1 46.9139 51.3521 58.5837
1 48.0884 51.8468 59.3457
1 47.9655 53.0086 60.1767
1 49.041 54.03 60.1813
1 48.4065 55.3653 60.3017
1 48.9539 56.4855 59.5935
1 50.1545 56.3085 58.7406
1 50.0002 57.1719 57.5445
1 50.467 56.7136 56.2687
1 49.6426 56.9354 55.0538
1 49.7737 55.7366 54.1875
1 48.6386 55.2531 53.457
1 48.3715 53.7959 53.388
1 46.9026 53.5948 53.4356
1 46.3551 52.4746 54.1438
1 45.1469 52.6478 54.9873
1 45.3016 51.7934 56.1906
1 44.8362 52.2592 57.4652
1 45.6566 52.0361 58.6814
1 45.5292 53.2358 59.5456
1 46.6643 53.7137 60.2813
1 46.9369 55.1701 60.3605
1 46.0643 56.1007 59.7048
1 46.6308 57.2599 58.9719
1 48.0514 57.4506 58.9187
1 48.6972 57.8734 57.6515
1 47.9007 58.0881 56.4778
1 48.3807 57.6099 55.1575
1 47.2077 57.1115 54.3974
1 47.3345 55.9531 53.5607
1 46.2615 54.9283 53.5455
1 45.0959 55.0969 54.3643
1 44.5294 53.9377 55.0971
1 44.0482 54.4193 56.4154
1 44.1999 53.5947 57.5791
1 44.6283 54.1983 58.865
1 44.8905 55.6062 58.9439
1 44.7323 56.4594 57.7404
1 44.3182 55.8759 56.4973
1 44.965 56.295 55.2295
1 46.0032 57.2844 55.2464
1 46.4315 57.888 56.5322
1 45.8072 57.4819 57.758
2 52.0229 52.1228 56.5199
3 52.1515 50.7443 57.1226
4 52.2905 50.5964 58.5078
4 52.409 49.3184 59.0668
4 52.3899 48.1884 58.2406
4 52.2531 48.3363 56.8552
5 54.0694 52.7269 53.1614
6 56.1257 53.6572 52.924
4 52.1345 49.6143 56.296
7 53.1591 52.8496 55.7996
7 54.4424 52.0186 55.7712
7 55.5702 52.7413 55.0338
8 55.1716 53.0392 53.6082
9 55.8428 53.9765 51.5801
10 52.3065 51.468 59.1456
10 52.5162 49.2041 60.1356
10 52.4822 47.2025 58.6721
10 52.24 47.4641 56.2182
10 52.0301 49.728 55.2271
11 52.8533 53.0822 54.7795
11 53.3531 53.8023 56.2925
11 54.247 51.0617 55.2873
11 54.7573 51.7968 56.7909
11 55.8132 53.6772 55.5371
11 56.4737 52.1314 55.0309
11 55.628 53.0708 51.013
11 54.9784 54.6379 51.522
11 56.6961 54.4784 51.1238
88
Atoms. Timestep: 10
1 50.8914 53.0076 57.0397
1 50.6115 52.6142 56.2009
1 49.5151 51.4989 56.0215
1 48.8677 51.0468 57.2271
1 49.2908 51.6448 58.5016
1 50.3256 52.6468 58.465
1 50.2177 53.8508 59.3534
1 50.783 55.0086 58.6223
1 51.2477 54.5245 57.2781
1 51.1186 55.3903 56.1341
1 50.6909 54.7924 54.8634
1 50.428 53.3774 54.8362
1 49.2574 52.8624 54.0515
1 48.6953 51.7083 54.7833
1 47.2529 51.5045 54.8213
1 46.598 51.0804 56.0822
1 47.3978 50.8568 57.2711
1 46.9139 51.3326 58.5917
1 48.0902 51.8302 59.3532
1 47.9675 53.0069 60.1922
1 49.0437 54.0285 60.2004
1 48.408 55.3644 60.3219
1 48.9608 56.4978 59.6019
1 50.1604 56.3202 58.7481
1 50.0071 57.1841 57.5536
1 50.4791 56.7221 56.2613
1 49.6565 56.9445 55.0445
1 49.7861 55.7435 54.1788
1 48.6373 55.2537 53.4374
1 48.3712 53.7941 53.364
1 46.8995 53.5952 53.4154
1 46.3469 52.462 54.1382
1 45.1371 52.6337 54.9798
1 45.2931 51.7798 56.1854
1 44.8227 52.2518 57.4724
1 45.644 52.0295 58.689
1 45.5156 53.227 59.5555
1 46.6642 53.7095 60.3013
1 46.9381 55.1672 60.3804
1 46.0525 56.1099 59.7184
1 46.6203 57.2695 58.9805
1 48.0585 57.4645 58.9276
1 48.7073 57.8894 57.66
1 47.9026 58.107 56.4718
1 48.3806 57.6249 55.1496
1 47.2054 57.1255 54.3917
1 47.3316 55.9551 53.5405
1 46.258 54.9287 53.5239
1 45.0833 55.0989 54.358
1 44.5113 53.9386 55.0883
1 44.0314 54.4222 56.4058
1 44.1834 53.588 57.5845
1 44.6125 54.1911 58.8729
1 44.8785 55.617 58.9546
1 44.7204 56.4704 57.7499
1 44.3042 55.8788 56.4909
1 44.9518 56.2979 55.2233
1 46.0013 57.301 55.2398
1 46.4302 57.9073 56.5246
1 45.7959 57.4973 57.7663
2 52.0846 52.0939 56.5133
3 52.1726 50.7373 57.1183
4 52.2865 50.5956 58.5083
4 52.4113 49.317 59.0697
4 52.3852 48.1862 58.2434
4 52.2517 48.3366 56.8565
5 54.0733 52.73 53.1579
6 56.1265 53.6577 52.9239
4 52.1353 49.6127 56.2953
7 53.1749 52.8352 55.8006
7 54.4446 52.0214 55.7691
7 55.5705 52.7433 55.0374
8 55.1758 53.0376 53.6082
9 55.8397 53.9748 51.5807
10 52.3056 51.468 59.1446
10 52.5219 49.2037 60.1383
10 52.4734 47.1985 58.6734
10 52.2417 47.4642 56.2199
10 52.0376 49.7279 55.2253
11 52.8529 53.0596 54.7837
11 53.3457 53.7916 56.2952
11 54.2456 51.0727 55.2745
11 54.7517 51.7847 56.7861
11 55.8182 53.6746 55.5428
11 56.4688 52.1249 55.0338
11 55.6218 53.0633 51.0256
11 54.9633 54.6231 51.5302
11 56.6864 54.4809 51.1151
88
Atoms. Timestep: 20
1 50.879 52.9173 56.8789
1 50.7046 52.6712 56.354
1 49.4835 51.5369 56.0851
1 48.8725 50.9699 57.2575
1 49.2983 51.5722 58.5385
1 50.2605 52.6351 58.4242
1 50.2585 53.8195 59.3295
1 50.8222 54.9717 58.601
1 51.1924 54.5359 57.2255
1 51.1811 55.4324 56.1009
1 50.7503 54.8305 54.8189
1 50.4055 53.4383 54.8797
1 49.3103 52.8455 54.0644
1 48.7468 51.6932 54.797
1 47.2728 51.471 54.801
1 46.5945 51.0442 56.0762
1 47.3841 50.8134 57.2718
1 46.8985 51.3047 58.6124
1 48.0893 51.8033 59.3898
1 47.9748 52.9872 60.2267
1 49.0819 54.0125 60.2254
1 48.4231 55.3761 60.3565
1 48.9764 56.5111 59.636
1 50.206 56.3207 58.7643
1 50.0374 57.2086 57.5573
1 50.5082 56.7575 56.2603
1 49.6697 56.9757 55.0243
1 49.7972 55.7615 54.1376
1 48.6509 55.2591 53.3995
1 48.3985 53.7745 53.3327
1 46.8931 53.5754 53.3786
1 46.3413 52.4428 54.1027
1 45.1073 52.6173 54.9556
1 45.265 51.7513 56.179
1 44.7914 52.2258 57.4754
1 45.6226 51.9978 58.71
1 45.4941 53.2152 59.589
1 46.6484 53.6995 60.3379
1 46.9257 55.1797 60.4199
1 46.0388 56.1259 59.7524
1 46.6134 57.3026 59.0052
1 48.0569 57.4957 58.9538
1 48.7147 57.9303 57.6653
1 47.905 58.1502 56.4712
1 48.3909 57.6605 55.1309
1 47.202 57.1508 54.358
1 47.3302 55.9749 53.5044
1 46.2379 54.9334 53.4891
1 45.0553 55.1061 54.3255
1 44.4775 53.927 55.0674
1 43.9896 54.4183 56.4084
1 44.1429 53.5798 57.5906
1 44.5794 54.1928 58.8972
1 44.845 55.6233 58.9785
1 44.6868 56.4924 57.754
1 44.2677 55.8987 56.4906
1 44.9273 56.3219 55.2053
1 45.9799 57.3282 55.2203
1 46.4125 57.9456 56.527
1 45.7778 57.5327 57.7736
2 52.0648 52.091 56.5245
3 52.2293 50.7242 57.1197
4 52.2864 50.5841 58.5056
4 52.4131 49.317 59.0698
4 52.3799 48.1864 58.2451
4 52.2515 48.3284 56.8578
5 54.081 52.7347 53.1555
6 56.1301 53.6597 52.9246
4 52.1398 49.5992 56.2963
7 53.1922 52.8274 55.7984
7 54.4664 52.0103 55.7617
7 55.5779 52.7452 55.0341
8 55.1846 53.0365 53.6046
9 55.8296 53.967 51.5874
10 52.2857 51.4646 59.129
10 52.5201 49.2081 60.1389
10 52.4711 47.2012 58.6796
10 52.2326 47.4587 56.2184
10 52.0286 49.7211 55.2276
11 52.8943 53.0456 54.7731
11 53.3965 53.7803 56.2843
11 54.2699 51.0681 55.2558
11 54.7815 51.7758 56.7755
11 55.8108 53.6787 55.5399
11 56.4831 52.1363 55.0374
11 55.617 53.0561 51.0299
11 54.9522 54.6152 51.5418
11 56.667 54.4811 51.1172
88
Atoms. Timestep: 30
1 50.949 52.9723 57.0479
1 50.6654 52.5702 56.195
1 49.4928 51.5368 56.1259
1 48.8251 50.8893 57.2909
1 49.2626 51.5066 58.6068
1 50.2518 52.601 58.4003
1 50.2168 53.7969 59.3114
1 50.7977 54.9887 58.5608
1 51.2007 54.531 57.1814
1 51.2206 55.5209 56.0662
1 50.7804 54.9049 54.7509
1 50.4407 53.4607 54.9009
1 49.3076 52.8886 54.0832
1 48.7286 51.7025 54.8399
1 47.3029 51.44 54.7898
1 46.5819 51.0148 56.065
1 47.3515 50.744 57.3109
1 46.875 51.2799 58.6305
1 48.0582 51.741 59.4362
1 47.9776 52.9768 60.2578
1 49.1166 53.9926 60.2394
1 48.4485 55.3637 60.3793
1 49.0121 56.5162 59.6504
1 50.2509 56.3142 58.7724
1 50.0546 57.2342 57.5677
1 50.541 56.8263 56.2187
1 49.6715 57.012 55.007
1 49.8317 55.8283 54.0922
1 48.6575 55.2659 53.3696
1 48.4335 53.7558 53.3156
1 46.9139 53.5627 53.3499
1 46.3524 52.4112 54.0801
1 45.0932 52.592 54.9327
1 45.2504 51.7224 56.1603
1 44.7595 52.2022 57.4822
1 45.5911 51.979 58.7316
1 45.469 53.2032 59.6159
1 46.6522 53.699 60.3755
1 46.931 55.1828 60.4564
1 46.0215 56.1456 59.7766
1 46.6014 57.33 59.0311
1 48.0759 57.5208 58.9743
1 48.7306 57.9565 57.6847
1 47.9024 58.1878 56.467
1 48.3842 57.6982 55.1133
1 47.1937 57.1833 54.3318
1 47.3262 55.9754 53.4658
1 46.2367 54.9302 53.4538
1 45.0258 55.1111 54.2989
1 44.4466 53.9285 55.0489
1 43.953 54.4211 56.4008
1 44.1098 53.5693 57.6043
1 44.5475 54.1863 58.9181
1 44.8205 55.6415 58.9989
1 44.6593 56.513 57.7693
1 44.232 55.91 56.4844
1 44.8939 56.3357 55.1873
1 45.9677 57.3583 55.2057
1 46.4004 57.9804 56.5198
1 45.7574 57.5574 57.7867
2 52.1748 52.0668 56.5038
3 52.26 50.7109 57.116
4 52.2937 50.5787 58.5076
4 52.4171 49.3075 59.0698
4 52.3803 48.1752 58.2494
4 52.2535 48.3104 56.8618
5 54.0912 52.7395 53.1558
6 56.1322 53.6597 52.9255
4 52.1529 49.5867 56.3016
7 53.2173 52.8219 55.7918
7 54.4933 51.994 55.7493
7 55.6006 52.7471 55.0251
8 55.1991 53.0342 53.6025
9 55.8195 53.9626 51.5913
10 52.2291 51.4428 59.1507
10 52.4915 49.1978 60.1416
10 52.4462 47.1906 58.6906
10 52.2045 47.4293 56.2376
10 51.9761 49.6946 55.2407
11 52.8508 53.0618 54.7886
11 53.3615 53.7784 56.3003
11 54.3081 51.0426 55.2535
11 54.8132 51.7514 56.7601
11 55.803 53.6879 55.5302
11 56.5288 52.1725 55.0232
11 55.6088 53.0454 51.0449
11 54.9325 54.5979 51.552
11 56.6504 54.4776 51.112
88
Atoms. Timestep: 40
1 50.8907 52.9621 56.9405
1 50.6755 52.655 56.2871
1 49.5291 51.4866 56.1164
1 48.8665 50.9037 57.3304
1 49.2764 51.4745 58.556
1 50.2981 52.567 58.4237
1 50.1814 53.8171 59.2651
1 50.7461 54.9665 58.5381
1 51.2451 54.5189 57.1836
1 51.2317 55.4793 56.0215
1 50.8273 54.9024 54.7964
1 50.4839 53.4363 54.8813
1 49.2842 52.9011 54.1375
1 48.7188 51.7565 54.87
1 47.2626 51.4347 54.8258
1 46.5575 50.9877 56.0922
1 47.3128 50.6953 57.3098
1 46.8235 51.2511 58.6638
1 48.0379 51.7179 59.489
1 47.947 52.9492 60.2749
1 49.0638 53.9723 60.2402
1 48.4645 55.349 60.3734
1 49.0317 56.5091 59.6426
1 50.2283 56.3543 58.7361
1 50.0571 57.2714 57.5403
1 50.5574 56.8858 56.2226
1 49.6639 57.0744 54.9796
1 49.8361 55.8635 54.0418
1 48.667 55.3097 53.3588
1 48.4259 53.8127 53.3209
1 46.9371 53.5595 53.3527
1 46.3698 52.3988 54.0837
1 45.1012 52.5864 54.9242
1 45.2434 51.7162 56.1638
1 44.7426 52.1955 57.4736
1 45.5658 51.986 58.7356
1 45.4639 53.2112 59.6348
1 46.6464 53.6937 60.3816
1 46.9456 55.1827 60.4593
1 46.0367 56.1473 59.7933
1 46.6169 57.3361 59.0426
1 48.088 57.5165 58.9837
1 48.7328 57.9638 57.681
1 47.8994 58.2001 56.4793
1 48.3606 57.718 55.1118
1 47.1762 57.1868 54.3145
1 47.3273 55.9876 53.4616
1 46.243 54.9201 53.4459
1 45.0298 55.1012 54.2822
1 44.4513 53.9155 55.036
1 43.9453 54.4158 56.3977
1 44.0989 53.5694 57.5967
1 44.54 54.1944 58.9275
1 44.816 55.6405 59.0082
1 44.648 56.5158 57.7691
1 44.2201 55.9138 56.4863
1 44.8865 56.3433 55.1797
1 45.9508 57.3612 55.1995
1 46.3934 57.9862 56.5272
1 45.757 57.5667 57.7903
2 52.0851 52.0798 56.5253
3 52.3309 50.7053 57.1101
4 52.2965 50.5635 58.5026
4 52.4227 49.2913 59.0766
4 52.3898 48.1514 58.2585
4 52.2587 48.2907 56.8725
5 54.1045 52.7428 53.1634
6 56.1351 53.6613 52.9212
4 52.1587 49.5627 56.3023
7 53.2598 52.8012 55.7881
7 54.5373 51.9905 55.7281
7 55.6312 52.7499 55.0146
8 55.2189 53.0304 53.5962
9 55.811 53.9599 51.5903
10 52.2314 51.4457 59.121
10 52.4383 49.1802 60.1508
10 52.3902 47.1647 58.7022
10 52.1464 47.4191 56.2457
10 51.9867 49.6772 55.2402
11 52.9894 53.0278 54.7518
11 53.5122 53.7421 56.2807
11 54.3373 51.0591 55.2026
11 54.8519 51.7479 56.7398
11 55.8266 53.6931 55.5203
11 56.5561 52.1703 55.0239
11 55.6007 53.0405 51.0474
11 54.9204 54.5881 51.5574
11 56.6297 54.483 51.1009
88
Atoms. Timestep: 50
1 50.8829 52.8823 56.8502
1 50.7264 52.6643 56.3913
1 49.4766 51.4972 56.1269
1 48.843 50.9075 57.258
1 49.2908 51.5358 58.6017
1 50.2469 52.5799 58.4343
1 50.1524 53.789 59.236
1 50.726 54.9722 58.4855
1 51.2169 54.582 57.1839
1 51.2221 55.4944 56.1036
1 50.7811 54.8597 54.748
1 50.4509 53.4868 54.8578
1 49.2932 52.9452 54.1726
1 48.7145 51.7631 54.9192
1 47.2711 51.4975 54.8729
1 46.5443 50.9695 56.1023
1 47.3542 50.7208 57.3309
1 46.8263 51.2034 58.6825
1 48.0554 51.7072 59.4409
1 47.9388 52.932 60.2842
1 49.0333 53.9853 60.1634
1 48.4281 55.362 60.3519
1 48.9924 56.5157 59.6243
1 50.1719 56.3098 58.6933
1 50.0662 57.2884 57.5285
1 50.5597 56.8344 56.1951
1 49.7045 57.0995 54.9565
1 49.861 55.8489 54.0901
1 48.6758 55.3281 53.3509
1 48.4122 53.827 53.4036
1 46.9146 53.5853 53.3812
1 46.3487 52.4308 54.1095
1 45.1176 52.5917 54.9529
1 45.2315 51.7312 56.1882
1 44.7408 52.2227 57.4816
1 45.5563 52.0046 58.732
1 45.4491 53.2222 59.6129
1 46.621 53.6909 60.3643
1 46.9443 55.1643 60.4314
1 46.0598 56.1317 59.7769
1 46.635 57.3091 59.0316
1 48.0858 57.5069 58.9527
1 48.709 57.9657 57.6578
1 47.8726 58.1864 56.4718
1 48.3427 57.7172 55.119
1 47.1634 57.1929 54.3408
1 47.3187 56.0093 53.483
1 46.2589 54.9354 53.4702
1 45.0568 55.0898 54.2985
1 44.4842 53.9096 55.044
1 43.9773 54.4151 56.3843
1 44.1177 53.5827 57.5885
1 44.5586 54.203 58.9117
1 44.8467 55.6433 59
1 44.6716 56.5073 57.7722
1 44.2386 55.9002 56.4783
1 44.8969 56.3134 55.1845
1 45.9468 57.3442 55.2113
1 46.3931 57.9585 56.5359
1 45.7725 57.54 57.7998
2 52.1528 52.0701 56.4959
3 52.2873 50.6932 57.1206
4 52.3202 50.5424 58.5023
4 52.4224 49.2721 59.0786
4 52.3987 48.1307 58.2706
4 52.2588 48.2709 56.8805
5 54.1203 52.7441 53.1776
6 56.1444 53.6679 52.9059
4 52.186 49.5586 56.3131
7 53.2583 52.8288 55.7788
7 54.5646 51.9731 55.7225
7 55.6674 52.75 55.0055
8 55.2444 53.0228 53.5903
9 55.8025 53.9613 51.581
10 52.1562 51.3978 59.1365
10 52.4092 49.1758 60.1542
10 52.3677 47.1498 58.7261
10 52.1213 47.3915 56.2667
10 51.9175 49.6652 55.2711
11 52.9007 53.079 54.7733
11 53.4094 53.7823 56.2927
11 54.3918 51.0395 55.1842
11 54.9049 51.6864 56.7182
11 55.878 53.691 55.5152
11 56.5947 52.1763 54.9826
11 55.599 53.0421 51.0338
11 54.91 54.5855 51.5575
11 56.6174 54.4893 51.0917
88
Atoms. Timestep: 60
1 50.9773 52.906 56.926
1 50.7635 52.6077 56.2817
1 49.4837 51.5814 56.1548
1 48.8152 50.9222 57.3412
1 49.2221 51.4948 58.5591
1 50.2188 52.6171 58.3574
1 50.1255 53.8471 59.2239
1 50.6718 54.9688 58.5139
1 51.1468 54.5005 57.1547
1 51.1852 55.5136 56.0104
1 50.788 54.9494 54.8046
1 50.4161 53.4737 54.9632
1 49.2331 52.9393 54.1918
1 48.6838 51.8107 54.8973
1 47.2614 51.5546 54.8889
1 46.589 51.0098 56.1272
1 47.3387 50.7663 57.3311
1 46.8426 51.2287 58.6659
1 48.0354 51.7424 59.4164
1 47.9537 52.933 60.2199
1 49.004 54.0134 60.1201
1 48.4011 55.3509 60.2966
1 48.9575 56.4943 59.5732
1 50.1125 56.2978 58.6785
1 50.0511 57.2308 57.502
1 50.5128 56.8273 56.204
1 49.6965 57.0711 54.9734
1 49.8208 55.849 54.1175
1 48.6883 55.3093 53.4128
1 48.3725 53.8413 53.4519
1 46.9153 53.6142 53.4439
1 46.3591 52.4699 54.1651
1 45.128 52.6225 54.9875
1 45.2375 51.7343 56.2049
1 44.7705 52.2404 57.4979
1 45.5894 51.9707 58.7336
1 45.4615 53.215 59.5791
1 46.6188 53.6795 60.3476
1 46.9255 55.1595 60.3891
1 46.0525 56.1051 59.7331
1 46.6277 57.286 58.9858
1 48.0584 57.4854 58.9215
1 48.706 57.9591 57.6396
1 47.8724 58.1529 56.4527
1 48.3914 57.7074 55.1105
1 47.181 57.1845 54.3747
1 47.3289 56.0189 53.5013
1 46.2588 54.9481 53.5176
1 45.0806 55.1036 54.3395
1 44.5063 53.923 55.0861
1 44.0232 54.4254 56.3969
1 44.1488 53.6091 57.582
1 44.5812 54.2188 58.879
1 44.8759 55.6306 58.9634
1 44.7021 56.4823 57.7604
1 44.2769 55.8853 56.4877
1 44.9277 56.2947 55.2138
1 45.9498 57.3169 55.2381
1 46.3868 57.9193 56.5385
1 45.7866 57.495 57.7833
2 52.183 52.035 56.4968
3 52.2702 50.6685 57.1178
4 52.3195 50.5349 58.5197
4 52.4229 49.2525 59.0864
4 52.4053 48.1176 58.2722
4 52.2602 48.264 56.8938
5 54.1383 52.7438 53.1947
6 56.1604 53.6764 52.8849
4 52.1896 49.5344 56.3178
7 53.2607 52.8174 55.7878
7 54.569 52.0046 55.7067
7 55.7033 52.7355 54.9959
8 55.2697 53.0165 53.5858
9 55.7982 53.9712 51.5609
10 52.2739 51.4053 59.1634
10 52.3855 49.1312 60.158
10 52.3897 47.1312 58.7151
10 52.1001 47.3965 56.273
10 52.0428 49.6399 55.25
11 52.9307 53.0749 54.777
11 53.4457 53.7558 56.312
11 54.3534 51.0744 55.1795
11 54.8695 51.7338 56.7187
11 55.9069 53.681 55.5011
11 56.6234 52.1475 54.9992
11 55.5913 53.0459 51.0239
11 54.896 54.58 51.5484
11 56.5977 54.5071 51.0525
88
Atoms. Timestep: 70
1 50.8988 52.9362 56.9395
1 50.6798 52.636 56.2978
1 49.4688 51.5777 56.1469
1 48.8582 50.9662 57.2779
1 49.2792 51.5591 58.5382
1 50.2091 52.6192 58.3634
1 50.105 53.8141 59.192
1 50.6704 54.9633 58.4638
1 51.1432 54.5444 57.1627
1 51.191 55.4511 56.0908
1 50.7544 54.8497 54.8091
1 50.3927 53.4999 54.9319
1 49.25 52.9712 54.2225
1 48.691 51.817 54.9425
1 47.2605 51.5511 54.9135
1 46.5642 51.1041 56.1261
1 47.3407 50.7707 57.3253
1 46.8413 51.2947 58.6368
1 48.0358 51.754 59.4114
1 47.911 53.0058 60.1677
1 48.9918 53.9946 60.1141
1 48.3738 55.3438 60.2377
1 48.9199 56.4652 59.5286
1 50.1164 56.2928 58.6545
1 49.9539 57.2075 57.5126
1 50.5124 56.8253 56.2066
1 49.6425 57.0367 55.0081
1 49.8174 55.8461 54.1206
1 48.6113 55.3114 53.4758
1 48.3845 53.8541 53.4667
1 46.9151 53.6345 53.507
1 46.3679 52.5148 54.2142
1 45.1336 52.6418 55.0075
1 45.2658 51.7501 56.2133
1 44.8034 52.2291 57.4919
1 45.569 51.9705 58.7429
1 45.4959 53.2045 59.5702
1 46.6347 53.6787 60.316
1 46.9162 55.1569 60.3653
1 46.0341 56.1026 59.6908
1 46.6 57.2663 58.9561
1 48.0402 57.4719 58.9026
1 48.7033 57.9301 57.6308
1 47.8997 58.1319 56.454
1 48.376 57.7263 55.1049
1 47.2087 57.16 54.3774
1 47.338 56.0042 53.53
1 46.2597 54.9537 53.5489
1 45.0768 55.119 54.3823
1 44.512 53.9549 55.1187
1 44.0394 54.4342 56.4344
1 44.1881 53.5858 57.5991
1 44.6083 54.18 58.8686
1 44.8684 55.6033 58.9284
1 44.7117 56.4598 57.7314
1 44.3056 55.8858 56.5094
1 44.952 56.3126 55.2478
1 46.0024 57.3133 55.2445
1 46.4243 57.9064 56.5125
1 45.7838 57.4785 57.7406
2 52.1413 52.0388 56.5084
3 52.31 50.6566 57.1301
4 52.3257 50.5127 58.5234
4 52.4045 49.2432 59.1052
4 52.4098 48.1108 58.2756
4 52.2426 48.2421 56.8909
5 54.1572 52.744 53.2067
6 56.1816 53.6855 52.8626
4 52.1983 49.5083 56.3118
7 53.3242 52.7814 55.7936
7 54.5724 52.0149 55.7116
7 55.7112 52.7386 54.9879
8 55.2973 53.0063 53.5749
9 55.7943 53.983 51.5375
10 52.3653 51.4044 59.1307
10 52.5108 49.1412 60.1768
10 52.4319 47.1238 58.7146
10 52.2253 47.3593 56.2686
10 52.1404 49.6095 55.2361
11 53.0149 53.0351 54.7906
11 53.5218 53.6975 56.3248
11 54.3741 51.0794 55.1906
11 54.9029 51.7618 56.7166
11 55.9876 53.6742 55.4811
11 56.5898 52.0953 54.988
11 55.5905 53.0602 50.9916
11 54.8896 54.5881 51.5418
11 56.5797 54.5301 51.018
88
Atoms. Timestep: 80
1 50.8386 52.9412 56.9001
1 50.654 52.6843 56.3453
1 49.499 51.5532 56.1082
1 48.8341 50.9634 57.2614
1 49.2646 51.573 58.5579
1 50.2589 52.6262 58.3906
1 50.1187 53.8342 59.2016
1 50.6676 54.9619 58.4954
1 51.1939 54.5094 57.1969
1 51.1721 55.4781 56.0791
1 50.7392 54.8788 54.8091
1 50.4206 53.4394 54.9153
1 49.2344 52.9491 54.206
1 48.6882 51.8216 54.9171
1 47.2894 51.5615 54.8996
1 46.597 51.0934 56.1222
1 47.3615 50.8192 57.29
1 46.8905 51.2738 58.6291
1 48.0593 51.809 59.3816
1 47.9422 52.9925 60.1597
1 49.0246 54.0038 60.0986
1 48.3732 55.3211 60.2329
1 48.9279 56.4595 59.508
1 50.1235 56.2714 58.6691
1 49.9894 57.1791 57.5146
1 50.4871 56.7821 56.2434
1 49.6869 57.0097 55.0049
1 49.7828 55.7948 54.1483
1 48.641 55.2827 53.475
1 48.388 53.8331 53.4713
1 46.9294 53.6447 53.5147
1 46.3739 52.5018 54.2312
1 45.1138 52.6716 55.018
1 45.26 51.8039 56.2195
1 44.7571 52.2239 57.4959
1 45.5998 51.9789 58.7284
1 45.4571 53.2127 59.5923
1 46.6126 53.7148 60.281
1 46.8881 55.1757 60.3471
1 46.0166 56.1005 59.6896
1 46.5882 57.2746 58.9473
1 48.0087 57.4695 58.8962
1 48.6564 57.9087 57.6304
1 47.8719 58.1802 56.4557
1 48.3853 57.6945 55.1165
1 47.1755 57.1921 54.3596
1 47.3048 55.9991 53.5704
1 46.2355 54.9667 53.571
1 45.0706 55.1342 54.3868
1 44.4978 53.9601 55.1282
1 44.0177 54.4009 56.445
1 44.1872 53.5623 57.6146
1 44.6056 54.1551 58.8763
1 44.8534 55.5802 58.9548
1 44.7138 56.4682 57.742
1 44.2987 55.8832 56.4941
1 44.9626 56.3391 55.2218
1 46.0204 57.3255 55.2379
1 46.4386 57.9216 56.4991
1 45.7969 57.518 57.7308
2 52.0992 52.066 56.5142
3 52.2732 50.6452 57.1291
4 52.3562 50.5064 58.5228
4 52.3996 49.2346 59.0998
4 52.3908 48.0915 58.2917
4 52.2416 48.2169 56.8955
5 54.1728 52.7477 53.1983
6 56.1967 53.6889 52.8398
4 52.2327 49.5085 56.3175
7 53.2778 52.8276 55.8062
7 54.6262 51.9605 55.7444
7 55.7279 52.7349 54.9816
8 55.3076 52.9926 53.5622
9 55.797 53.9986 51.5215
10 52.3078 51.3661 59.1775
10 52.5331 49.1379 60.1677
10 52.6236 47.1317 58.7303
10 52.2537 47.3395 56.2617
10 52.0845 49.6209 55.2541
11 52.9953 53.1094 54.8016
11 53.476 53.7668 56.2997
11 54.4347 51.0126 55.2359
11 54.9647 51.6986 56.7508
11 55.9695 53.6732 55.4908
11 56.6378 52.1427 54.9342
11 55.5914 53.0795 50.969
11 54.8855 54.5935 51.5406
11 56.5775 54.557 51.0041
88
Atoms. Timestep: 90
1 50.9504 52.9498 56.9991
1 50.6953 52.6045 56.2349
1 49.5016 51.5311 56.1147
1 48.8639 50.9655 57.3002
1 49.2693 51.5459 58.5245
1 50.2666 52.5999 58.4088
1 50.1758 53.8319 59.268
1 50.7402 54.9719 58.5439
1 51.2186 54.5334 57.1791
1 51.177 55.4461 56.0666
1 50.7586 54.8654 54.8262
1 50.4552 53.4657 54.8941
1 49.2692 52.9061 54.1352
1 48.7077 51.7644 54.8613
1 47.255 51.5544 54.8613
1 46.5953 51.0691 56.1005
1 47.381 50.8228 57.311
1 46.8725 51.2934 58.6245
1 48.0636 51.787 59.3589
1 47.9589 52.9925 60.187
1 49.0161 54.0326 60.1396
1 48.3782 55.3633 60.2483
1 48.9146 56.4659 59.5517
1 50.1208 56.2885 58.7094
1 50.0076 57.1998 57.5309
1 50.494 56.7636 56.2172
1 49.6577 57.0173 55.0114
1 49.8062 55.7982 54.1716
1 48.6427 55.2796 53.4435
1 48.3581 53.8113 53.4355
1 46.8917 53.6204 53.4914
1 46.3541 52.5171 54.1866
1 45.1277 52.6585 54.9975
1 45.2789 51.7751 56.2031
1 44.7511 52.1928 57.5076
1 45.6025 51.9731 58.7284
1 45.4542 53.1849 59.6131
1 46.6442 53.6993 60.3007
1 46.9135 55.1759 60.3568
1 46.0121 56.1283 59.7121
1 46.5825 57.291 58.9765
1 48.0259 57.4561 58.9124
1 48.6976 57.9089 57.6437
1 47.9026 58.2062 56.4461
1 48.3865 57.7019 55.1146
1 47.1979 57.2089 54.3369
1 47.3292 55.9823 53.5439
1 46.2406 54.9431 53.5578
1 45.0471 55.124 54.3661
1 44.4758 53.959 55.1001
1 43.9655 54.4295 56.4225
1 44.109 53.5783 57.6118
1 44.5418 54.1881 58.9024
1 44.8171 55.6289 58.9699
1 44.6981 56.481 57.7512
1 44.2786 55.8899 56.4949
1 44.9002 56.3425 55.2135
1 45.9561 57.3639 55.2206
1 46.383 57.9758 56.513
1 45.7473 57.5447 57.766
2 52.1033 52.0526 56.5161
3 52.1868 50.6805 57.1356
4 52.3635 50.5112 58.519
4 52.4082 49.2179 59.0931
4 52.4117 48.0762 58.2861
4 52.2582 48.2272 56.9134
5 54.1695 52.7479 53.1723
6 56.1996 53.6793 52.828
4 52.2392 49.5064 56.3245
7 53.2385 52.8332 55.8353
7 54.6137 51.9799 55.7599
7 55.7618 52.7085 54.9842
8 55.3189 52.9921 53.5477
9 55.805 54.016 51.5155
10 52.3959 51.3903 59.147
10 52.471 49.1135 60.166
10 52.488 47.0852 58.724
10 52.2039 47.3517 56.2859
10 52.1761 49.5821 55.2488
11 52.9106 53.0792 54.8279
11 53.394 53.7625 56.3791
11 54.4224 51.0222 55.2732
11 54.9661 51.7564 56.7683
11 55.9149 53.6821 55.4485
11 56.7165 52.1802 55.0312
11 55.607 53.1058 50.9468
11 54.893 54.6101 51.5413
11 56.582 54.5869 51.0051
88
Atoms. Timestep: 100
1 50.9183 52.9434 56.965
1 50.6885 52.6234 56.2728
1 49.5317 51.553 56.0943
1 48.8938 50.9564 57.2396
1 49.3278 51.5662 58.5515
1 50.3051 52.6174 58.3951
1 50.2394 53.7954 59.3243
1 50.8184 54.9937 58.5714
1 51.2235 54.4902 57.2229
1 51.204 55.4281 56.102
1 50.7785 54.8235 54.8071
1 50.4501 53.3994 54.8936
1 49.3185 52.8789 54.0694
1 48.7387 51.6924 54.8277
1 47.265 51.4898 54.8506
1 46.5782 51.0418 56.1034
1 47.3643 50.7831 57.2958
1 46.8556 51.3007 58.6277
1 48.067 51.7763 59.4076
1 47.9474 52.972 60.214
1 49.0399 53.9934 60.1862
1 48.3897 55.3659 60.32
1 48.9508 56.5083 59.594
1 50.1839 56.3247 58.7077
1 50.0284 57.2228 57.5301
1 50.5107 56.7939 56.2345
1 49.646 57.0241 55.0123
1 49.8048 55.8047 54.1263
1 48.652 55.2905 53.4181
1 48.4086 53.8234 53.3738
1 46.8894 53.608 53.4158
1 46.3287 52.4624 54.1388
1 45.1136 52.6364 54.9881
1 45.2536 51.7329 56.1898
1 44.7615 52.2198 57.4809
1 45.5484 51.9918 58.7389
1 45.4697 53.2136 59.6024
1 46.6396 53.6842 60.346
1 46.9143 55.1716 60.3804
1 46.0106 56.1398 59.7582
1 46.5837 57.3237 59.0113
1 48.0475 57.4808 58.9156
1 48.719 57.9495 57.655
1 47.8868 58.1824 56.4718
1 48.3518 57.7351 55.1104
1 47.1762 57.1809 54.3506
1 47.3301 55.9967 53.4973
1 46.2458 54.9495 53.5249
1 45.0209 55.1201 54.328
1 44.4449 53.9374 55.0717
1 43.9244 54.4391 56.4066
1 44.0351 53.5699 57.6059
1 44.4886 54.2003 58.9495
1 44.7922 55.6567 58.996
1 44.6446 56.5081 57.7563
1 44.2282 55.9179 56.502
1 44.8604 56.3506 55.1999
1 45.9113 57.4073 55.1812
1 46.3612 58.0429 56.5269
1 45.7219 57.5723 57.787
2 52.1426 52.0281 56.5139
3 52.1635 50.6337 57.1388
4 52.3607 50.5132 58.5208
4 52.4157 49.231 59.0952
4 52.4314 48.0886 58.2812
4 52.2711 48.246 56.9006
5 54.174 52.7468 53.1491
6 56.2079 53.6651 52.8301
4 52.2348 49.5265 56.3349
7 53.3002 52.7597 55.8561
7 54.5629 52.0444 55.7675
7 55.7224 52.7347 54.9857
8 55.3209 52.9654 53.5313
9 55.8128 54.03 51.5189
10 52.5122 51.3937 59.1342
10 52.4536 49.1134 60.1675
10 52.3126 47.111 58.7242
10 52.2021 47.3725 56.2712
10 52.2895 49.6689 55.269
11 52.9825 53.0622 54.8669
11 53.4506 53.6839 56.3968
11 54.3645 51.0818 55.3139
11 54.8897 51.8381 56.7786
11 56.0196 53.6731 55.4601
11 56.5931 52.0762 54.9983
11 55.62 53.1414 50.916
11 54.902 54.6273 51.553
11 56.6005 54.6137 51.0421
88
Atoms. Timestep: 110
1 50.9019 52.9161 56.9049
1 50.7016 52.6431 56.328
1 49.5093 51.5461 56.0563
1 48.8693 50.9573 57.2712
1 49.3028 51.5456 58.5511
1 50.3127 52.6442 58.4116
1 50.2753 53.8228 59.3337
1 50.84 54.9604 58.613
1 51.2249 54.5013 57.2315
1 51.1986 55.4436 56.0947
1 50.7721 54.8353 54.7996
1 50.4513 53.3962 54.8962
1 49.3233 52.8276 54.0551
1 48.7555 51.6965 54.788
1 47.2935 51.4403 54.8008
1 46.577 51.0059 56.0845
1 47.3707 50.7766 57.2938
1 46.8751 51.2721 58.6348
1 48.0746 51.7653 59.4121
1 47.964 52.9598 60.2541
1 49.1034 53.9871 60.2305
1 48.4562 55.3385 60.3662
1 49.0262 56.519 59.6191
1 50.2386 56.3306 58.762
1 50.052 57.2479 57.5397
1 50.5231 56.7866 56.2359
1 49.6756 57.0184 55.0038
1 49.8227 55.7986 54.1187
1 48.6618 55.2952 53.3819
1 48.427 53.7756 53.3152
1 46.9403 53.5786 53.3519
1 46.3688 52.3962 54.0998
1 45.081 52.5934 54.9581
1 45.2017 51.7647 56.1949
1 44.7255 52.2581 57.5018
1 45.5915 52.0152 58.7126
1 45.4183 53.2352 59.5827
1 46.5863 53.7154 60.3449
1 46.9126 55.1678 60.4401
1 46.0037 56.1427 59.7752
1 46.5949 57.3431 59.0175
1 48.0608 57.5279 58.9539
1 48.6689 57.9726 57.6542
1 47.8389 58.1864 56.4522
1 48.3533 57.6863 55.1318
1 47.143 57.2083 54.3752
1 47.2816 56.0227 53.5072
1 46.2286 54.9546 53.4682
1 45.0189 55.1291 54.3056
1 44.4285 53.9303 55.065
1 43.9061 54.416 56.4055
1 44.0369 53.5863 57.6076
1 44.4833 54.2106 58.9407
1 44.7829 55.6435 59.0259
1 44.6067 56.5507 57.7911
1 44.1686 55.932 56.4759
1 44.8627 56.368 55.1743
1 45.8976 57.4055 55.1999
1 46.342 58.0292 56.5263
1 45.7368 57.6009 57.7908
2 52.0768 52.0162 56.5394
3 52.1981 50.6462 57.1621
4 52.3875 50.4973 58.5229
4 52.4209 49.2452 59.1065
4 52.3852 48.1231 58.277
4 52.2818 48.2507 56.8765
5 54.1776 52.742 53.1262
6 56.2137 53.6453 52.8391
4 52.2624 49.5229 56.3138
7 53.2941 52.8052 55.8494
7 54.5895 52.0102 55.7952
7 55.6508 52.7543 54.9727
8 55.3058 52.9416 53.5227
9 55.8304 54.0452 51.5387
10 52.4066 51.3691 59.1593
10 52.504 49.1597 60.1817
10 52.5382 47.1483 58.7112
10 52.2586 47.3816 56.2329
10 52.1844 49.6127 55.2381
11 53.0624 53.0817 54.8113
11 53.5294 53.7262 56.3948
11 54.3918 51.0497 55.3293
11 54.9512 51.82 56.8028
11 56.0003 53.6805 55.4271
11 56.5071 52.0902 54.9496
11 55.637 53.1664 50.9254
11 54.914 54.6328 51.5881
11 56.6071 54.6446 51.064
88
Atoms. Timestep: 120
1 50.8813 52.9297 56.9647
1 50.6625 52.6171 56.2868
1 49.488 51.5305 56.1419
1 48.8314 50.9735 57.2684
1 49.2718 51.5677 58.5498
1 50.242 52.5906 58.395
1 50.247 53.7907 59.3214
1 50.8315 54.9964 58.5732
1 51.2147 54.5274 57.1815
1 51.1739 55.4554 56.0828
1 50.7573 54.8579 54.8227
1 50.4414 53.4561 54.8995
1 49.3268 52.8731 54.0606
1 48.738 51.6816 54.8249
1 47.2806 51.4255 54.7567
1 46.563 51.0291 56.0683
1 47.3648 50.7777 57.2995
1 46.8672 51.2922 58.6256
1 48.0748 51.7584 59.4127
1 47.9606 52.9864 60.2522
1 49.1239 54.0083 60.2713
1 48.4559 55.3831 60.365
1 49.0058 56.5025 59.6637
1 50.2655 56.3346 58.7971
1 50.032 57.2389 57.5696
1 50.521 56.7889 56.2286
1 49.6595 57.0034 55.0137
1 49.8245 55.8 54.1213
1 48.639 55.2734 53.3782
1 48.4291 53.7514 53.2822
1 46.9031 53.5455 53.3561
1 46.3562 52.4297 54.0673
1 45.0864 52.5991 54.9161
1 45.2428 51.7376 56.1782
1 44.7486 52.2354 57.4888
1 45.5961 52.0443 58.698
1 45.4521 53.2252 59.5944
1 46.6361 53.6975 60.3551
1 46.9365 55.198 60.4562
1 46.0465 56.1523 59.7703
1 46.6053 57.3105 59.0389
1 48.0705 57.5295 58.9853
1 48.7054 57.9536 57.6642
1 47.8624 58.1748 56.4643
1 48.3379 57.6568 55.1468
1 47.1607 57.1886 54.3604
1 47.3158 55.994 53.4981
1 46.2238 54.9324 53.4486
1 45.0266 55.0948 54.3092
1 44.4649 53.9329 55.0356
1 43.9127 54.4574 56.3945
1 44.0836 53.6165 57.6031
1 44.5111 54.2267 58.8999
1 44.7801 55.6814 58.9992
1 44.5948 56.5482 57.778
1 44.1642 55.9474 56.4939
1 44.837 56.3483 55.1991
1 45.9137 57.3647 55.2299
1 46.3485 57.9759 56.531
1 45.7077 57.5693 57.8043
2 52.144 52.0641 56.5048
3 52.2417 50.6694 57.1214
4 52.3991 50.5351 58.5473
4 52.4199 49.2433 59.1009
4 52.3692 48.1142 58.2689
4 52.2915 48.2545 56.8849
5 54.1479 52.7283 53.0909
6 56.2102 53.6201 52.8563
4 52.2711 49.5271 56.3036
7 53.2476 52.836 55.8699
7 54.5952 51.9803 55.7941
7 55.6728 52.7192 54.9708
8 55.2812 52.9393 53.5162
9 55.8491 54.0564 51.5696
10 52.4056 51.417 59.1818
10 52.6033 49.1001 60.1539
10 52.5355 47.1341 58.6917
10 52.3692 47.3757 56.2652
10 52.1749 49.6669 55.2371
11 52.8869 53.1048 54.8678
11 53.351 53.7863 56.4077
11 54.419 50.9949 55.368
11 54.9981 51.8051 56.7899
11 55.7164 53.7196 55.3999
11 56.6703 52.2691 55.0467
11 55.6663 53.1978 50.9272
11 54.9338 54.6465 51.6252
11 56.6375 54.6649 51.1295
88
Atoms. Timestep: 130
1 50.872 52.9509 56.9275
1 50.6639 52.6668 56.3016
1 49.4998 51.5715 56.1162
1 48.8186 50.9723 57.3099