  LAMMPS description
 
      88   atoms
      30   bonds
      59   angles
      49   dihedrals
 
      11   atom types
      13   bond types
      24   angle types
      21s   dihedral types
 
       0  100.000000     xlo xhi
       0  100.000000     ylo yhi
       0  100.000000     zlo zhi
  0.0000000      0.0000000      0.0000000     xy xz yz

  Masses

       1   12.010000
       2   12.010000
       3   12.010000
       4   12.010000
       5   16.000000
       6   16.000000
       7   12.010000
       8   12.010000
       9   12.010000
      10   1.0100000
      11   1.0100000

   Atoms

       1       1       1    0.000000   50.993000   53.067000   57.215000
       2       1       1    0.000000   50.595026   52.506307   56.020607
       3       1       1    0.000000   49.496201   51.494429   56.005636
       4       1       1    0.000000   48.863333   51.069948   57.215759
       5       1       1    0.000000   49.289214   51.670091   58.494184
       6       1       1    0.000000   50.322450   52.658753   58.485938
       7       1       1    0.000000   50.196437   53.858462   59.348826
       8       1       1    0.000000   50.761348   55.014608   58.617589
       9       1       1    0.000000   51.240557   54.538111   57.297222
      10       1       1    0.000000   51.101752   55.379126   56.149156
      11       1       1    0.000000   50.675917   54.779083   54.870941
      12       1       1    0.000000   50.414579   53.374265   54.817980
      13       1       1    0.000000   49.242611   52.874459   54.058558
      14       1       1    0.000000   48.677547   51.718062   54.789272
      15       1       1    0.000000   47.257824   51.517171   54.828436
      16       1       1    0.000000   46.603886   51.089791   56.089203
      17       1       1    0.000000   47.395111   50.869747   57.264428
      18       1       1    0.000000   46.913851   51.352112   58.583726
      19       1       1    0.000000   48.088421   51.846751   59.345665
      20       1       1    0.000000   47.965527   53.008594   60.176705
      21       1       1    0.000000   49.040978   54.029967   60.181292
      22       1       1    0.000000   48.406460   55.365349   60.301705
      23       1       1    0.000000   48.953893   56.485455   59.593483
      24       1       1    0.000000   50.154537   56.308508   58.740554
      25       1       1    0.000000   50.000249   57.171903   57.544506
      26       1       1    0.000000   50.466989   56.713613   56.268693
      27       1       1    0.000000   49.642566   56.935439   55.053774
      28       1       1    0.000000   49.773672   55.736607   54.187451
      29       1       1    0.000000   48.638627   55.253125   53.457046
      30       1       1    0.000000   48.371474   53.795852   53.387985
      31       1       1    0.000000   46.902583   53.594782   53.435640
      32       1       1    0.000000   46.355123   52.474636   54.143779
      33       1       1    0.000000   45.146920   52.647793   54.987314
      34       1       1    0.000000   45.301552   51.793381   56.190601
      35       1       1    0.000000   44.836193   52.259174   57.465156
      36       1       1    0.000000   45.656642   52.036092   58.681448
      37       1       1    0.000000   45.529234   53.235794   59.545595
      38       1       1    0.000000   46.664268   53.713696   60.281339
      39       1       1    0.000000   46.936861   55.170147   60.360547
      40       1       1    0.000000   46.064268   56.100692   59.704781
      41       1       1    0.000000   46.630784   57.259852   58.971917
      42       1       1    0.000000   48.051398   57.450612   58.918745
      43       1       1    0.000000   48.697217   57.873376   57.651455
      44       1       1    0.000000   47.900691   58.088117   56.477804
      45       1       1    0.000000   48.380705   57.609911   55.157504
      46       1       1    0.000000   47.207652   57.111496   54.397360
      47       1       1    0.000000   47.334507   55.953064   53.560719
      48       1       1    0.000000   46.261469   54.928271   53.545534
      49       1       1    0.000000   45.095879   55.096890   54.364269
      50       1       1    0.000000   44.529359   53.937725   55.097126
      51       1       1    0.000000   44.048237   54.419271   56.415400
      52       1       1    0.000000   44.199918   53.594684   57.579127
      53       1       1    0.000000   44.628258   54.198293   58.864963
      54       1       1    0.000000   44.890521   55.606200   58.943856
      55       1       1    0.000000   44.732299   56.459412   57.740410
      56       1       1    0.000000   44.318202   55.875874   56.497330
      57       1       1    0.000000   44.964951   56.294980   55.229515
      58       1       1    0.000000   46.003192   57.284416   55.246357
      59       1       1    0.000000   46.431532   57.888024   56.532193
      60       1       1    0.000000   45.807233   57.481907   57.757971
      61       1       2   -0.030000   52.022889   52.122813   56.519907
      62       1       3    0.000000   52.151505   50.744298   57.122558
      63       1       4   -0.115000   52.290501   50.596417   58.507787
      64       1       4   -0.115000   52.409030   49.318383   59.066842
      65       1       4   -0.115000   52.389924   48.188363   58.240613
      66       1       4   -0.115000   52.253053   48.336308   56.855201
      67       1       5   -0.500000   54.069409   52.726933   53.161405
      68       1       6   -0.170000   56.125675   53.657224   52.924009
      69       1       4   -0.115000   52.134487   49.614342   56.296049
      70       1       7   -0.120000   53.159089   52.849571   55.799553
      71       1       7   -0.120000   54.442364   52.018604   55.771201
      72       1       7   -0.120000   55.570207   52.741290   55.033760
      73       1       8    0.700000   55.171637   53.039231   53.608220
      74       1       9   -0.180000   55.842833   53.976503   51.580051
      75       1      10    0.115000   52.306490   51.467962   59.145623
      76       1      10    0.115000   52.516196   49.204068   60.135562
      77       1      10    0.115000   52.482191   47.202467   58.672127
      78       1      10    0.115000   52.239957   47.464106   56.218223
      79       1      10    0.115000   52.030087   49.728033   55.227129
      80       1      11    0.060000   52.853293   53.082175   54.779546
      81       1      11    0.060000   53.353068   53.802299   56.292487
      82       1      11    0.060000   54.247033   51.061686   55.287310
      83       1      11    0.060000   54.757281   51.796774   56.790907
      84       1      11    0.060000   55.813192   53.677162   55.537079
      85       1      11    0.060000   56.473698   52.131426   55.030911
      86       1      11    0.060000   55.628028   53.070778   51.013026
      87       1      11    0.060000   54.978417   54.637865   51.521977
      88       1      11    0.060000   56.696119   54.478386   51.123766

   Bonds

       1       1      64      63
       2       1      65      64
       3       1      66      65
       4       1      69      66
       5       2      63      62
       6       2      69      62
       7       3      62      61
       8       4      75      63
       9       4      76      64
      10       4      77      65
      11       4      78      66
      12       4      79      69
      13       5      70      61
      14       6      71      70
      15       6      72      71
      16       7      61       1
      17       7      61       2
      18       8      73      72
      19       9      74      68
      20      10      80      70
      21      10      81      70
      22      10      82      71
      23      10      83      71
      24      10      84      72
      25      10      85      72
      26      11      86      74
      27      11      87      74
      28      11      88      74
      29      12      73      67
      30      13      73      68

   Angles

       1       1      63      64      65
       2       1      64      65      66
       3       1      65      66      69
       4       2      63      62      69
       5       3      62      63      64
       6       3      62      69      66
       7       4      61      62      63
       8       4      61      62      69
       9       5      64      63      75
      10       5      63      64      76
      11       5      65      64      76
      12       5      64      65      77
      13       5      66      65      77
      14       5      65      66      78
      15       5      69      66      78
      16       5      66      69      79
      17       6      62      63      75
      18       6      62      69      79
      19       7      61      70      71
      20       8      70      71      72
      21       9      62      61      70
      22      10       1      61      70
      23      10       2      61      70
      24      11      71      72      73
      25      12      61      70      80
      26      12      61      70      81
      27      13      71      70      80
      28      13      71      70      81
      29      13      70      71      82
      30      13      70      71      83
      31      13      72      71      82
      32      13      72      71      83
      33      13      71      72      84
      34      13      71      72      85
      35      14      73      72      84
      36      14      73      72      85
      37      15      68      74      86
      38      15      68      74      87
      39      15      68      74      88
      40      16      80      70      81
      41      16      82      71      83
      42      16      84      72      85
      43      17      86      74      87
      44      17      86      74      88
      45      17      87      74      88
      46      18       1      61      70
      47      18       2      61      70
      48      19       1      61      62
      49      19       2      61      62
      50      20      68      73      72
      51      21      67      73      72
      52      22      67      73      68
      53      23      73      68      74
      54      24       2       1      61
      55      24       6       1      61
      56      24       9       1      61
      57      24       1       2      61
      58      24       3       2      61
      59      24      12       2      61

   Dihedrals

       1       1      75      63      64      76 #0
       2       1      76      64      65      77 #0
       3       1      77      65      66      78 #0
       4       1      78      66      69      79 #0
       5       2      75      63      64      65 #180
       6       2      63      64      65      77 #180
       7       2      76      64      65      66 #180
       8       2      64      65      66      78 #180
       9       2      77      65      66      69 #180
       10       2      65      66      69      79 #180
       11       3      62      63      64      76 #180
       12       3      78      66      69      62 #180
       13       4      61      62      63      75 #0
       14       4      61      62      69      79 #0
       15       5      61      70      71      72 #180
       16       6      61      70      71      72 #180
       17       7      61      70      71      72 #180
       18       8      80      70      71      72 #60
       19       8      81      70      71      72 #60
       20       8      70      71      72      84 #60
       21       8      61      70      71      82 #60
       22       8      61      70      71      83 #60
       23       8      80      70      71      82 #60
       24       8      81      70      71      83 #60
       25       8      82      71      72      85 #60
       26       8      83      71      72      84 #60
       27       8      83      71      72      85 #60
       28       9      70      71      72      85 #180
       29       9      80      70      71      83 #180
       30       9      81      70      71      82 #180
       31       9      82      71      72      84 #180
       32      10      71      72      73      67 #0
       33      11      71      72      73      67 #0
       34      12      71      72      73      67 #0
       35      13      71      72      73      68 #180
       36      14      84      72      73      68 #60
       37      14      85      72      73      68 #60
       38      15      74      68      73      72 #180
       39      16      74      68      73      72 #180
       40      17      74      68      73      67 #0
       41      18      73      68      74      86 #60
       42      18      73      68      74      87 #60
       43      19      73      68      74      88 #180
