********************************************************************************
*                       GENERAL UTILITY LATTICE PROGRAM                        *
*                                 Julian Gale                                  *
*                      Nanochemistry Research Institute                        *
*                           Department of Chemistry                            *
*                    Curtin University, Western Australia                      *
********************************************************************************
* Version = 4.1.0 * Last modified =  21st June 2013                            *
********************************************************************************
*  optimise     - perform optimisation run                                     *
*  phonon       - calculate phonons for final geometry                         *
*  thermal      - calculate thermal conductivity for final geometry            *
*  nomodcoord   - do not mod input coordinates                                 *
*  molecule     - molecule option activated, Coulomb subtract within molecule  *
*  compare      - compare initial and final structures                         *
*  broaden_dos  - broaden density of states curves                             *
********************************************************************************

  Job Started  at 21:25.40 29th July       2013                               

  Number of CPUs =     1


  Total number of configurations input =   1

********************************************************************************
*  Input for Configuration =   1                                               *
********************************************************************************

  Formula = C72O2H14                                                    

  Number of irreducible atoms/shells =      88


  Total number atoms/shells =      88

  Dimensionality = 3               :  Bulk   



  Cartesian lattice vectors (Angstroms) :

      100.000000    0.000000    0.000000
        0.000000  100.000000    0.000000
        0.000000    0.000000  100.000000

  Cell parameters (Angstroms/Degrees):

  a =     100.0000    alpha =  90.0000
  b =     100.0000    beta  =  90.0000
  c =     100.0000    gamma =  90.0000

  Initial cell volume =     1000000.000000 Angs**3

  Temperature of configuration =  300.0     K 

  Pressure of configuration =         0.000 GPa 

  Fractional coordinates of asymmetric unit :

--------------------------------------------------------------------------------
   No.  Atomic       x           y          z         Charge      Occupancy
        Label      (Frac)      (Frac)     (Frac)        (e)         (Frac)  
--------------------------------------------------------------------------------
      1 C1    c    0.509930    0.530670    0.572150     0.00000    1.000000    
      2 C1    c    0.506450 *  0.521040 *  0.559520 *   0.00000    1.000000    
      3 C1    c    0.494670 *  0.512100 *  0.561460 *   0.00000    1.000000    
      4 C1    c    0.488070 *  0.510710 *  0.573510 *   0.00000    1.000000    
      5 C1    c    0.491250 *  0.519410 *  0.584940 *   0.00000    1.000000    
      6 C1    c    0.500860 *  0.529150 *  0.583900 *   0.00000    1.000000    
      7 C1    c    0.498250 *  0.542330 *  0.589170 *   0.00000    1.000000    
      8 C1    c    0.503860 *  0.552170 *  0.580140 *   0.00000    1.000000    
      9 C1    c    0.509970 *  0.545160 *  0.569060 *   0.00000    1.000000    
     10 C1    c    0.508850 *  0.550420 *  0.556430 *   0.00000    1.000000    
     11 C1    c    0.505550 *  0.541690 *  0.544960 *   0.00000    1.000000    
     12 C1    c    0.503770 *  0.528150 *  0.546730 *   0.00000    1.000000    
     13 C1    c    0.492710 *  0.521620 *  0.540160 *   0.00000    1.000000    
     14 C1    c    0.487090 *  0.511860 *  0.549230 *   0.00000    1.000000    
     15 C1    c    0.473460 *  0.509420 *  0.549120 *   0.00000    1.000000    
     16 C1    c    0.466560 *  0.507600 *  0.561700 *   0.00000    1.000000    
     17 C1    c    0.473710 *  0.508420 *  0.573570 *   0.00000    1.000000    
     18 C1    c    0.468000 *  0.515440 *  0.584950 *   0.00000    1.000000    
     19 C1    c    0.478740 *  0.522290 *  0.591870 *   0.00000    1.000000    
     20 C1    c    0.476550 *  0.534820 *  0.597430 *   0.00000    1.000000    
     21 C1    c    0.486470 *  0.545160 *  0.596060 *   0.00000    1.000000    
     22 C1    c    0.479810 *  0.557870 *  0.594150 *   0.00000    1.000000    
     23 C1    c    0.485210 *  0.567240 *  0.585480 *   0.00000    1.000000    
     24 C1    c    0.497540 *  0.564450 *  0.578360 *   0.00000    1.000000    
     25 C1    c    0.496590 *  0.569970 *  0.565170 *   0.00000    1.000000    
     26 C1    c    0.501980 *  0.563030 *  0.554330 *   0.00000    1.000000    
     27 C1    c    0.494660 *  0.562250 *  0.541870 *   0.00000    1.000000    
     28 C1    c    0.496880 *  0.549180 *  0.536190 *   0.00000    1.000000    
     29 C1    c    0.486540 *  0.542670 *  0.529410 *   0.00000    1.000000    
     30 C1    c    0.484440 *  0.528640 *  0.531480 *   0.00000    1.000000    
     31 C1    c    0.470100 *  0.526210 *  0.531500 *   0.00000    1.000000    
     32 C1    c    0.464740 *  0.516760 *  0.540160 *   0.00000    1.000000    
     33 C1    c    0.452430 *  0.519570 *  0.547270 *   0.00000    1.000000    
     34 C1    c    0.453520 *  0.514010 *  0.560580 *   0.00000    1.000000    
     35 C1    c    0.448070 *  0.520700 *  0.571370 *   0.00000    1.000000    
     36 C1    c    0.455490 *  0.521530 *  0.583860 *   0.00000    1.000000    
     37 C1    c    0.453200 *  0.534570 *  0.589590 *   0.00000    1.000000    
     38 C1    c    0.463530 *  0.541180 *  0.596290 *   0.00000    1.000000    
     39 C1    c    0.465530 *  0.555400 *  0.594270 *   0.00000    1.000000    
     40 C1    c    0.457150 *  0.562450 *  0.585670 *   0.00000    1.000000    
     41 C1    c    0.462820 *  0.572310 *  0.576570 *   0.00000    1.000000    
     42 C1    c    0.476550 *  0.574670 *  0.576500 *   0.00000    1.000000    
     43 C1    c    0.483610 *  0.576330 *  0.563910 *   0.00000    1.000000    
     44 C1    c    0.476620 *  0.575570 *  0.551950 *   0.00000    1.000000    
     45 C1    c    0.482250 *  0.568490 *  0.540680 *   0.00000    1.000000    
     46 C1    c    0.471430 *  0.561690 *  0.533660 *   0.00000    1.000000    
     47 C1    c    0.473560 *  0.549210 *  0.528160 *   0.00000    1.000000    
     48 C1    c    0.463450 *  0.538880 *  0.529510 *   0.00000    1.000000    
     49 C1    c    0.451590 *  0.541610 *  0.536280 *   0.00000    1.000000    
     50 C1    c    0.445950 *  0.531770 *  0.545340 *   0.00000    1.000000    
     51 C1    c    0.440240 *  0.538830 *  0.556670 *   0.00000    1.000000    
     52 C1    c    0.441350 *  0.533390 *  0.569390 *   0.00000    1.000000    
     53 C1    c    0.444480 *  0.542000 *  0.580700 *   0.00000    1.000000    
     54 C1    c    0.446500 *  0.555520 *  0.578690 *   0.00000    1.000000    
     55 C1    c    0.445420 *  0.561220 *  0.565340 *   0.00000    1.000000    
     56 C1    c    0.442340 *  0.553010 *  0.554640 *   0.00000    1.000000    
     57 C1    c    0.449340 *  0.554730 *  0.542010 *   0.00000    1.000000    
     58 C1    c    0.459080 *  0.564550 *  0.540670 *   0.00000    1.000000    
     59 C1    c    0.462300 *  0.573130 *  0.552080 *   0.00000    1.000000    
     60 C1    c    0.455520 *  0.571500 *  0.564110 *   0.00000    1.000000    
     61 C7    c    0.519650 *  0.520240 *  0.566960 *  -0.03000    1.000000    
     62 C3    c    0.522020 *  0.508200 *  0.575620 *   0.00000    1.000000    
     63 C2    c    0.524960 *  0.509820 *  0.589150 *  -0.11500    1.000000    
     64 C2    c    0.527600 *  0.498750 *  0.597210 *  -0.11500    1.000000    
     65 C2    c    0.527450 *  0.486060 *  0.591720 *  -0.11500    1.000000    
     66 C2    c    0.524650 *  0.484340 *  0.578270 *  -0.11500    1.000000    
     67 O1    c    0.533060 *  0.541600 *  0.530860 *  -0.50000    1.000000    
     68 O2    c    0.554430 *  0.546430 *  0.535800 *  -0.17000    1.000000    
     69 C2    c    0.521840 *  0.495330 *  0.570270 *  -0.11500    1.000000    
     70 C5    c    0.532010 *  0.525510 *  0.559570 *  -0.12000    1.000000    
     71 C5    c    0.535750 *  0.517570 *  0.547080 *  -0.12000    1.000000    
     72 C5    c    0.547400 *  0.524250 *  0.539610 *  -0.12000    1.000000    
     73 C4    c    0.543910 *  0.538170 *  0.534990 *   0.70000    1.000000    
     74 C6    c    0.551990 *  0.560270 *  0.531980 *  -0.18000    1.000000    
     75 H1    c    0.525080 *  0.519310 *  0.592870 *   0.11500    1.000000    
     76 H1    c    0.530130 *  0.500250 *  0.607030 *   0.11500    1.000000    
     77 H1    c    0.529870 *  0.478130 *  0.597470 *   0.11500    1.000000    
     78 H1    c    0.524110 *  0.475330 *  0.574030 *   0.11500    1.000000    
     79 H1    c    0.519350 *  0.493060 *  0.560520 *   0.11500    1.000000    
     80 H2    c    0.530150 *  0.535050 *  0.556900 *   0.06000    1.000000    
     81 H2    c    0.540310 *  0.525630 *  0.566560 *   0.06000    1.000000    
     82 H2    c    0.527630 *  0.517030 *  0.540280 *   0.06000    1.000000    
     83 H2    c    0.538250 *  0.508070 *  0.549830 *   0.06000    1.000000    
     84 H2    c    0.555400 *  0.524800 *  0.545380 *   0.06000    1.000000    
     85 H2    c    0.549990 *  0.519230 *  0.531120 *   0.06000    1.000000    
     86 H2    c    0.547500 *  0.560700 *  0.523500 *   0.06000    1.000000    
     87 H2    c    0.545650 *  0.564520 *  0.539440 *   0.06000    1.000000    
     88 H2    c    0.561570 *  0.564260 *  0.531430 *   0.06000    1.000000    
--------------------------------------------------------------------------------



  Molecule list generated from bond lengths :

  Total number of molecules =     1

--------------------------------------------------------------------------------
Molecule No./:  Atoms
Periodicity  :  
--------------------------------------------------------------------------------
     1  0    : C1   c     1 C1   c     2 C1   c     3 C1   c     4 C1   c     5
             : C1   c     6 C1   c     7 C1   c     8 C1   c     9 C1   c    10
             : C1   c    11 C1   c    12 C1   c    13 C1   c    14 C1   c    15
             : C1   c    16 C1   c    17 C1   c    18 C1   c    19 C1   c    20
             : C1   c    21 C1   c    22 C1   c    23 C1   c    24 C1   c    25
             : C1   c    26 C1   c    27 C1   c    28 C1   c    29 C1   c    30
             : C1   c    31 C1   c    32 C1   c    33 C1   c    34 C1   c    35
             : C1   c    36 C1   c    37 C1   c    38 C1   c    39 C1   c    40
             : C1   c    41 C1   c    42 C1   c    43 C1   c    44 C1   c    45
             : C1   c    46 C1   c    47 C1   c    48 C1   c    49 C1   c    50
             : C1   c    51 C1   c    52 C1   c    53 C1   c    54 C1   c    55
             : C1   c    56 C1   c    57 C1   c    58 C1   c    59 C1   c    60
             : C7   c    61 C3   c    62 C2   c    63 C2   c    64 C2   c    65
             : C2   c    66 O1   c    67 O2   c    68 C2   c    69 C5   c    70
             : C5   c    71 C5   c    72 C4   c    73 C6   c    74 H1   c    75
             : H1   c    76 H1   c    77 H1   c    78 H1   c    79 H2   c    80
             : H2   c    81 H2   c    82 H2   c    83 H2   c    84 H2   c    85
             : H2   c    86 H2   c    87 H2   c    88
--------------------------------------------------------------------------------

  Brillouin zone sampling points :

--------------------------------------------------------------------------------
  Point number          x          y          z            Weight
--------------------------------------------------------------------------------
        1           0.000000   0.000000   0.000000         1.0000
--------------------------------------------------------------------------------


********************************************************************************
*  General input information                                                   *
********************************************************************************

  Species output for all configurations : 

--------------------------------------------------------------------------------
  Species    Type    Atomic    Atomic    Charge       Radii (Angs)     Library
                     Number     Mass       (e)     Cova   Ionic  VDW   Symbol
--------------------------------------------------------------------------------
    C1       Core        6      12.01   0.000000   0.770  0.000  1.530          
    C7       Core        6      12.01  -0.030000   0.770  0.000  1.530          
    C3       Core        6      12.01   0.000000   0.770  0.000  1.530          
    C2       Core        6      12.01  -0.115000   0.770  0.000  1.530          
    O1       Core        8      16.00  -0.500000   0.730  0.000  1.360          
    O2       Core        8      16.00  -0.170000   0.730  0.000  1.360          
    C5       Core        6      12.01  -0.120000   0.770  0.000  1.530          
    C4       Core        6      12.01   0.700000   0.770  0.000  1.530          
    C6       Core        6      12.01  -0.180000   0.770  0.000  1.530          
    H1       Core        1       1.01   0.115000   0.370  0.000  1.080          
    H2       Core        1       1.01   0.060000   0.370  0.000  1.080          
--------------------------------------------------------------------------------


  Lattice summation method = Wolf et al

  Modified method - smoothed energy only / correct forces

  Eta    =     0.223000 Angstrom**-1
  Cutoff =    12.000000 Angstrom

  Time limit = Infinity

  Maximum range for interatomic potentials =    100000.000000 Angstroms

  Intramolecular potentials :

--------------------------------------------------------------------------------
Atom  Types   Potential         A         B         C         D     Cutoffs(Ang)
  1     2                                                            Min    Max 
--------------------------------------------------------------------------------
C2   c C2   c Harmonic       40.7      1.40      0.00      0.00     0.000 1 Bond
                                                                    single      
C2   c C3   c Harmonic       40.7      1.40      0.00      0.00     0.000 1 Bond
                                                                    single      
C3   c C7   c Harmonic       27.5      1.51      0.00      0.00     0.000 1 Bond
                                                                    single      
H1   c C2   c Harmonic       31.8      1.08      0.00      0.00     0.000 1 Bond
                                                                    single      
C5   c C7   c Harmonic       23.2      1.53      0.00      0.00     0.000 1 Bond
                                                                    single      
C5   c C5   c Harmonic       23.2      1.53      0.00      0.00     0.000 1 Bond
                                                                    single      
C1   c C7   c Harmonic       27.5      1.51      0.00      0.00     0.000 1 Bond
                                                                    single      
C4   c C5   c Harmonic       27.5      1.51      0.00      0.00     0.000 1 Bond
                                                                    single      
C6   c O2   c Harmonic       27.8      1.41      0.00      0.00     0.000 1 Bond
                                                                    single      
H2   c C5   c Harmonic       29.5      1.09      0.00      0.00     0.000 1 Bond
                                                                    single      
H2   c C6   c Harmonic       29.5      1.09      0.00      0.00     0.000 1 Bond
                                                                    single      
C4   c O1   c Harmonic       45.1      1.23      0.00      0.00     0.000 1 Bond
                                                                    single      
C4   c O2   c Harmonic       18.6      1.33      0.00      0.00     0.000 1 Bond
                                                                    single      
--------------------------------------------------------------------------------

  Intermolecular potentials :

--------------------------------------------------------------------------------
Atom  Types   Potential         A         B         C         D     Cutoffs(Ang)
  1     2                                                            Min    Max 
--------------------------------------------------------------------------------
C1   c C1   c Lenn/es 12  6 0.700E-01  3.55      0.00      0.00     0.000 12.000
C1   c C2   c Lenn/es 12  6 0.700E-01  3.55      0.00      0.00     0.000 12.000
C2   c C2   c Lenn/es 12  6 0.700E-01  3.55      0.00      0.00     0.000 12.000
C1   c C3   c Lenn/es 12  6 0.700E-01  3.55      0.00      0.00     0.000 12.000
C2   c C3   c Lenn/es 12  6 0.700E-01  3.55      0.00      0.00     0.000 12.000
C3   c C3   c Lenn/es 12  6 0.700E-01  3.55      0.00      0.00     0.000 12.000
C1   c C4   c Lenn/es 12  6 0.857E-01  3.65      0.00      0.00     0.000 12.000
C2   c C4   c Lenn/es 12  6 0.857E-01  3.65      0.00      0.00     0.000 12.000
C3   c C4   c Lenn/es 12  6 0.857E-01  3.65      0.00      0.00     0.000 12.000
C4   c C4   c Lenn/es 12  6 0.105      3.75      0.00      0.00     0.000 12.000
C1   c C5   c Lenn/es 12  6 0.680E-01  3.52      0.00      0.00     0.000 12.000
C2   c C5   c Lenn/es 12  6 0.680E-01  3.52      0.00      0.00     0.000 12.000
C3   c C5   c Lenn/es 12  6 0.680E-01  3.52      0.00      0.00     0.000 12.000
C4   c C5   c Lenn/es 12  6 0.832E-01  3.62      0.00      0.00     0.000 12.000
C5   c C5   c Lenn/es 12  6 0.660E-01  3.50      0.00      0.00     0.000 12.000
C1   c C6   c Lenn/es 12  6 0.680E-01  3.52      0.00      0.00     0.000 12.000
C2   c C6   c Lenn/es 12  6 0.680E-01  3.52      0.00      0.00     0.000 12.000
C3   c C6   c Lenn/es 12  6 0.680E-01  3.52      0.00      0.00     0.000 12.000
C4   c C6   c Lenn/es 12  6 0.832E-01  3.62      0.00      0.00     0.000 12.000
C5   c C6   c Lenn/es 12  6 0.660E-01  3.50      0.00      0.00     0.000 12.000
C6   c C6   c Lenn/es 12  6 0.660E-01  3.50      0.00      0.00     0.000 12.000
C1   c C7   c Lenn/es 12  6 0.680E-01  3.52      0.00      0.00     0.000 12.000
C2   c C7   c Lenn/es 12  6 0.680E-01  3.52      0.00      0.00     0.000 12.000
C3   c C7   c Lenn/es 12  6 0.680E-01  3.52      0.00      0.00     0.000 12.000
C4   c C7   c Lenn/es 12  6 0.832E-01  3.62      0.00      0.00     0.000 12.000
C5   c C7   c Lenn/es 12  6 0.660E-01  3.50      0.00      0.00     0.000 12.000
C6   c C7   c Lenn/es 12  6 0.660E-01  3.50      0.00      0.00     0.000 12.000
C7   c C7   c Lenn/es 12  6 0.660E-01  3.50      0.00      0.00     0.000 12.000
C1   c O1   c Lenn/es 12  6 0.121      3.24      0.00      0.00     0.000 12.000
C2   c O1   c Lenn/es 12  6 0.121      3.24      0.00      0.00     0.000 12.000
C3   c O1   c Lenn/es 12  6 0.121      3.24      0.00      0.00     0.000 12.000
C4   c O1   c Lenn/es 12  6 0.148      3.33      0.00      0.00     0.000 12.000
C5   c O1   c Lenn/es 12  6 0.118      3.22      0.00      0.00     0.000 12.000
C6   c O1   c Lenn/es 12  6 0.118      3.22      0.00      0.00     0.000 12.000
C7   c O1   c Lenn/es 12  6 0.118      3.22      0.00      0.00     0.000 12.000
O1   c O1   c Lenn/es 12  6 0.210      2.96      0.00      0.00     0.000 12.000
C1   c O2   c Lenn/es 12  6 0.990E-01  3.21      0.00      0.00     0.000 12.000
C2   c O2   c Lenn/es 12  6 0.990E-01  3.21      0.00      0.00     0.000 12.000
C3   c O2   c Lenn/es 12  6 0.990E-01  3.21      0.00      0.00     0.000 12.000
C4   c O2   c Lenn/es 12  6 0.121      3.30      0.00      0.00     0.000 12.000
C5   c O2   c Lenn/es 12  6 0.961E-01  3.19      0.00      0.00     0.000 12.000
C6   c O2   c Lenn/es 12  6 0.961E-01  3.19      0.00      0.00     0.000 12.000
C7   c O2   c Lenn/es 12  6 0.961E-01  3.19      0.00      0.00     0.000 12.000
O1   c O2   c Lenn/es 12  6 0.171      2.93      0.00      0.00     0.000 12.000
O2   c O2   c Lenn/es 12  6 0.140      2.90      0.00      0.00     0.000 12.000
H1   c C1   c Lenn/es 12  6 0.458E-01  2.93      0.00      0.00     0.000 12.000
H1   c C2   c Lenn/es 12  6 0.458E-01  2.93      0.00      0.00     0.000 12.000
H1   c C3   c Lenn/es 12  6 0.458E-01  2.93      0.00      0.00     0.000 12.000
H1   c C4   c Lenn/es 12  6 0.561E-01  3.01      0.00      0.00     0.000 12.000
H1   c C5   c Lenn/es 12  6 0.445E-01  2.91      0.00      0.00     0.000 12.000
H1   c C6   c Lenn/es 12  6 0.445E-01  2.91      0.00      0.00     0.000 12.000
H1   c C7   c Lenn/es 12  6 0.445E-01  2.91      0.00      0.00     0.000 12.000
H1   c O1   c Lenn/es 12  6 0.794E-01  2.68      0.00      0.00     0.000 12.000
H1   c O2   c Lenn/es 12  6 0.648E-01  2.65      0.00      0.00     0.000 12.000
H1   c H1   c Lenn/es 12  6 0.300E-01  2.42      0.00      0.00     0.000 12.000
H2   c C1   c Lenn/es 12  6 0.458E-01  2.98      0.00      0.00     0.000 12.000
H2   c C2   c Lenn/es 12  6 0.458E-01  2.98      0.00      0.00     0.000 12.000
H2   c C3   c Lenn/es 12  6 0.458E-01  2.98      0.00      0.00     0.000 12.000
H2   c C4   c Lenn/es 12  6 0.561E-01  3.06      0.00      0.00     0.000 12.000
H2   c C5   c Lenn/es 12  6 0.445E-01  2.96      0.00      0.00     0.000 12.000
H2   c C6   c Lenn/es 12  6 0.445E-01  2.96      0.00      0.00     0.000 12.000
H2   c C7   c Lenn/es 12  6 0.445E-01  2.96      0.00      0.00     0.000 12.000
H2   c O1   c Lenn/es 12  6 0.794E-01  2.72      0.00      0.00     0.000 12.000
H2   c O2   c Lenn/es 12  6 0.648E-01  2.69      0.00      0.00     0.000 12.000
H1   c H2   c Lenn/es 12  6 0.300E-01  2.46      0.00      0.00     0.000 12.000
H2   c H2   c Lenn/es 12  6 0.300E-01  2.50      0.00      0.00     0.000 12.000
--------------------------------------------------------------------------------

  Intramolecular Three-body potentials :

  Cosine Harmonic form:

--------------------------------------------------------------------------------
Atom    Atom    Atom           Force Constants            Theta     Cutoffs  
  1       2       3               (eV)                    (deg)  1-2  1-3  2-3
--------------------------------------------------------------------------------
C2    c C2    c C2    c                  5.4639184       120.000     Bonded
C3    c C2    c C2    c                  5.4639184       120.000     Bonded
C2    c C2    c C3    c                  5.4639184       120.000     Bonded
C3    c C2    c C7    c                  6.0710205       120.000     Bonded
C2    c H1    c C2    c                  3.0355102       120.000     Bonded
C2    c H1    c C3    c                  3.0355102       120.000     Bonded
C5    c C5    c C7    c                  5.0606292       112.700     Bonded
C5    c C5    c C5    c                  5.0606292       112.700     Bonded
C7    c C3    c C5    c                  5.4639184       114.000     Bonded
C7    c C1    c C5    c                  5.4639184       114.000     Bonded
C5    c C4    c C5    c                  5.4639184       111.100     Bonded
C5    c H2    c C7    c                  3.2523324       110.700     Bonded
C5    c H2    c C5    c                  3.2523324       110.700     Bonded
C5    c H2    c C4    c                  3.0355102       109.500     Bonded
C6    c H2    c O2    c                  3.0355102       109.500     Bonded
C5    c H2    c H2    c                  2.8620525       107.800     Bonded
C6    c H2    c H2    c                  2.8620525       107.800     Bonded
C7    c C1    c C5    c                  5.4639184       111.100     Bonded
C7    c C1    c C3    c                  3.4691546       109.500     Bonded
C4    c C5    c O2    c                  7.0250380       111.400     Bonded
C4    c C5    c O1    c                  6.9383091       120.400     Bonded
C4    c O1    c O2    c                  7.1984957       123.400     Bonded
O2    c C4    c C6    c                  7.1984957       116.900     Bonded
C1    c C1    c C7    c                  6.0710205       120.000     Bonded
--------------------------------------------------------------------------------

  Intramolecular Four-body potentials :

  Standard form:

--------------------------------------------------------------------------------
         Atom Types             Force cst Sign Phase Phi0         Cutoffs
   1       2       3       4       (eV)                     1-2  2-3  3-4  4-1
--------------------------------------------------------------------------------
H1    c C2    c C2    c H1    c  0.3144     -   2     0.00  Bonded              
H1    c C2    c C2    c C2    c  0.3144     -   2     0.00  Bonded              
H1    c C2    c C2    c C3    c  0.3144     -   2     0.00  Bonded              
H1    c C2    c C3    c C7    c  0.3144     -   2     0.00  Bonded              
C7    c C5    c C5    c C5    c  0.2819E-01 +   1     0.00  Bonded              
C7    c C5    c C5    c C5    c  -.1084E-02 -   2     0.00  Bonded              
C7    c C5    c C5    c C5    c  0.4336E-02 +   3     0.00  Bonded              
C5    c C5    c C5    c H2    c  0.6505E-02 +   3     0.00  Bonded              
C7    c C5    c C5    c H2    c  0.6505E-02 +   3     0.00  Bonded              
H2    c C5    c C5    c H2    c  0.6505E-02 +   3     0.00  Bonded              
O1    c C4    c C5    c C5    c  -.6006E-02 +   1     0.00  Bonded              
O1    c C4    c C5    c C5    c  0.2663E-01 -   2     0.00  Bonded              
O1    c C4    c C5    c C5    c  -.1505E-01 +   3     0.00  Bonded              
O2    c C4    c C5    c C5    c  -.1199E-01 -   2     0.00  Bonded              
O2    c C4    c C5    c H2    c  0.2862E-02 -   2     0.00  Bonded              
C5    c C4    c O2    c C6    c  0.1012     +   1     0.00  Bonded              
C5    c C4    c O2    c C6    c  0.1111     -   2     0.00  Bonded              
O1    c C4    c O2    c C6    c  0.1111     -   2     0.00  Bonded              
C4    c O2    c C6    c H2    c  0.4293E-02 +   3     0.00  Bonded              
C1    c C7    c C5    c C5    c  0.2819E-01 +   1     0.00  Bonded              
C1    c C7    c C5    c C5    c  -.1084E-02 -   2     0.00  Bonded              
C1    c C7    c C5    c C5    c  0.4336E-02 +   3     0.00  Bonded              
C1    c C7    c C5    c H2    c  0.6505E-02 +   3     0.00  Bonded              
C1    c C1    c C7    c C3    c  0.3144     -   2     0.00  Bonded              
C1    c C1    c C7    c C5    c  0.3144     -   2     0.00  Bonded              
--------------------------------------------------------------------------------

  Bond-order two-body potentials :

--------------------------------------------------------------------------------
Atom  Types                 A                 B                  Cutoffs(Ang)   
  1     2                 ZetaA             ZetaB                Taper    Max   
--------------------------------------------------------------------------------
C1   c C1   c          1393.6000000000       430.0000000000     1.8000   2.1000
                          3.487900000          2.211900000    
--------------------------------------------------------------------------------

  Bond-order repulsive :

--------------------------------------------------------------------------------
Atom    Type         Alpha            N             Lambda          M           
 1/2     1/2                                                                    
--------------------------------------------------------------------------------
C1   c             0.00000000       0.72751000       2.21190000       3
C1   c
--------------------------------------------------------------------------------

  Bond-order attractive :

--------------------------------------------------------------------------------
Atom    Type         Alpha            N             Lambda          M           
 1/2     1/2           C              D                H                        
--------------------------------------------------------------------------------
C1   c  Theta       0.00000016       0.72751000       2.21190000       3
C1   c          38049.00000000       4.38400000      -0.93000000
--------------------------------------------------------------------------------

********************************************************************************
*  Output for configuration   1                                                *
********************************************************************************


  Components of energy : 

--------------------------------------------------------------------------------
  Interatomic potentials     =           1.09512567 eV
  Three-body potentials      =           6.85494407 eV
  Four-body potentials       =           2.96382269 eV
  Out of plane potentials    =           0.00000000 eV
  Bond-order potentials      =        -431.62810209 eV
  Monopole - monopole (real) =           1.80616423 eV
  Monopole - monopole (recip)=           0.00000000 eV
  Monopole - monopole (total)=           1.80616423 eV
  Wolf sum self energy       =          -1.82999609 eV
--------------------------------------------------------------------------------
  Total lattice energy       =        -420.73804151 eV
--------------------------------------------------------------------------------
  Total lattice energy       =          -40594.7894 kJ/(mole unit cells)
--------------------------------------------------------------------------------


  Number of variables =      261

  Maximum number of calculations  =         10000
  Maximum Hessian update interval =            10
  Maximum step size               =   1.000000000
  Maximum parameter tolerance     =   0.000010000
  Maximum function  tolerance     =   0.000010000
  Maximum gradient  tolerance     =   0.001000000
  Maximum gradient  component     =   0.010000000

  Symmetry not applied to optimisation

  Newton-Raphson optimiser to be used

  BFGS hessian update to be used

  Start of bulk optimisation :

  Cycle:      0 Energy:      -420.738042  Gnorm:      6.536512  CPU:    0.060
  ** Hessian calculated **
  Cycle:      1 Energy:      -424.088090  Gnorm:      3.658630  CPU:    0.156
  ** Hessian calculated **
  Cycle:      2 Energy:      -424.916159  Gnorm:      1.994294  CPU:    0.248
  Cycle:      3 Energy:      -425.330701  Gnorm:      1.773783  CPU:    0.296
  Cycle:      4 Energy:      -425.587599  Gnorm:      1.381451  CPU:    0.348
  Cycle:      5 Energy:      -425.703011  Gnorm:      0.919532  CPU:    0.396
  Cycle:      6 Energy:      -425.767351  Gnorm:      0.629807  CPU:    0.448
  Cycle:      7 Energy:      -425.805018  Gnorm:      0.500800  CPU:    0.496
  Cycle:      8 Energy:      -425.829678  Gnorm:      0.433228  CPU:    0.548
  Cycle:      9 Energy:      -425.849874  Gnorm:      0.395579  CPU:    0.600
  Cycle:     10 Energy:      -425.869932  Gnorm:      0.395151  CPU:    0.652
  Cycle:     11 Energy:      -425.888289  Gnorm:      0.394037  CPU:    0.700
  ** Hessian calculated **
  Cycle:     12 Energy:      -425.933401  Gnorm:      0.327174  CPU:    0.824
  Cycle:     13 Energy:      -425.963914  Gnorm:      0.295394  CPU:    0.896
  Cycle:     14 Energy:      -425.980502  Gnorm:      0.218763  CPU:    0.956
  ** Hessian calculated **
  Cycle:     15 Energy:      -425.983887  Gnorm:      0.161768  CPU:    1.044
  Cycle:     16 Energy:      -425.988044  Gnorm:      0.185398  CPU:    1.120
  Cycle:     17 Energy:      -425.991283  Gnorm:      0.138090  CPU:    1.172
  Cycle:     18 Energy:      -425.994003  Gnorm:      0.152000  CPU:    1.224
  Cycle:     19 Energy:      -425.996468  Gnorm:      0.141605  CPU:    1.276
  Cycle:     20 Energy:      -425.998913  Gnorm:      0.143564  CPU:    1.324
  Cycle:     21 Energy:      -426.002135  Gnorm:      0.146138  CPU:    1.376
  Cycle:     22 Energy:      -426.005200  Gnorm:      0.145024  CPU:    1.428
  Cycle:     23 Energy:      -426.007138  Gnorm:      0.106894  CPU:    1.480
  Cycle:     24 Energy:      -426.008402  Gnorm:      0.094062  CPU:    1.536
  ** Hessian calculated **
  Cycle:     25 Energy:      -426.008978  Gnorm:      0.059980  CPU:    1.632
  Cycle:     26 Energy:      -426.009532  Gnorm:      0.071393  CPU:    1.684
  Cycle:     27 Energy:      -426.010143  Gnorm:      0.064094  CPU:    1.736
  Cycle:     28 Energy:      -426.010826  Gnorm:      0.072817  CPU:    1.784
  Cycle:     29 Energy:      -426.011500  Gnorm:      0.075797  CPU:    1.836
  Cycle:     30 Energy:      -426.012217  Gnorm:      0.071578  CPU:    1.884
  Cycle:     31 Energy:      -426.012938  Gnorm:      0.067044  CPU:    1.936
  Cycle:     32 Energy:      -426.013523  Gnorm:      0.066380  CPU:    1.988
  Cycle:     33 Energy:      -426.013977  Gnorm:      0.047964  CPU:    2.048
  Cycle:     34 Energy:      -426.014417  Gnorm:      0.069462  CPU:    2.100
  ** Hessian calculated **
  Cycle:     35 Energy:      -426.014688  Gnorm:      0.037305  CPU:    2.196
  Cycle:     36 Energy:      -426.014940  Gnorm:      0.046549  CPU:    2.260
  Cycle:     37 Energy:      -426.015223  Gnorm:      0.043661  CPU:    2.312
  Cycle:     38 Energy:      -426.015537  Gnorm:      0.047754  CPU:    2.364
  Cycle:     39 Energy:      -426.015839  Gnorm:      0.045151  CPU:    2.416
  Cycle:     40 Energy:      -426.016075  Gnorm:      0.043071  CPU:    2.472
  Cycle:     41 Energy:      -426.016282  Gnorm:      0.033597  CPU:    2.528
  Cycle:     42 Energy:      -426.016441  Gnorm:      0.031129  CPU:    2.580
  Cycle:     43 Energy:      -426.016576  Gnorm:      0.026263  CPU:    2.632
  Cycle:     44 Energy:      -426.016680  Gnorm:      0.036067  CPU:    2.680
  ** Hessian calculated **
  Cycle:     45 Energy:      -426.016761  Gnorm:      0.022871  CPU:    2.776
  Cycle:     46 Energy:      -426.016853  Gnorm:      0.023835  CPU:    2.832
  Cycle:     47 Energy:      -426.016952  Gnorm:      0.024733  CPU:    2.884
  Cycle:     48 Energy:      -426.017061  Gnorm:      0.026808  CPU:    2.936
  Cycle:     49 Energy:      -426.017185  Gnorm:      0.030390  CPU:    2.992
  Cycle:     50 Energy:      -426.017311  Gnorm:      0.029505  CPU:    3.048
  Cycle:     51 Energy:      -426.017431  Gnorm:      0.031116  CPU:    3.104
  Cycle:     52 Energy:      -426.017535  Gnorm:      0.025542  CPU:    3.160
  Cycle:     53 Energy:      -426.017620  Gnorm:      0.023053  CPU:    3.240
  Cycle:     54 Energy:      -426.017688  Gnorm:      0.025286  CPU:    3.316
  ** Hessian calculated **
  Cycle:     55 Energy:      -426.017744  Gnorm:      0.020246  CPU:    3.408
  Cycle:     56 Energy:      -426.017810  Gnorm:      0.020926  CPU:    3.460
  Cycle:     57 Energy:      -426.017884  Gnorm:      0.023940  CPU:    3.512
  Cycle:     58 Energy:      -426.017963  Gnorm:      0.024357  CPU:    3.560
  Cycle:     59 Energy:      -426.018046  Gnorm:      0.022755  CPU:    3.612
  Cycle:     60 Energy:      -426.018097  Gnorm:      0.017801  CPU:    3.660
  Cycle:     61 Energy:      -426.018148  Gnorm:      0.018312  CPU:    3.712
  Cycle:     62 Energy:      -426.018193  Gnorm:      0.017182  CPU:    3.760
  Cycle:     63 Energy:      -426.018235  Gnorm:      0.015195  CPU:    3.808
  Cycle:     64 Energy:      -426.018275  Gnorm:      0.023763  CPU:    3.860
  ** Hessian calculated **
  Cycle:     65 Energy:      -426.018421  Gnorm:      0.023771  CPU:    4.000
  Cycle:     66 Energy:      -426.018660  Gnorm:      0.023863  CPU:    4.088
  Cycle:     67 Energy:      -426.019079  Gnorm:      0.024240  CPU:    4.176
  Cycle:     68 Energy:      -426.019544  Gnorm:      0.024780  CPU:    4.264
  Cycle:     69 Energy:      -426.020273  Gnorm:      0.025715  CPU:    4.380
  Cycle:     70 Energy:      -426.021792  Gnorm:      0.035071  CPU:    4.456
  Cycle:     71 Energy:      -426.022433  Gnorm:      0.037289  CPU:    4.556
  Cycle:     72 Energy:      -426.024379  Gnorm:      0.069306  CPU:    4.636
  Cycle:     73 Energy:      -426.025080  Gnorm:      0.087141  CPU:    4.700
  Cycle:     74 Energy:      -426.025546  Gnorm:      0.090807  CPU:    4.752
  ** Hessian calculated **
  Cycle:     75 Energy:      -426.026202  Gnorm:      0.056531  CPU:    4.844
  Cycle:     76 Energy:      -426.026512  Gnorm:      0.039981  CPU:    4.896
  Cycle:     77 Energy:      -426.026756  Gnorm:      0.032637  CPU:    4.948
  Cycle:     78 Energy:      -426.026864  Gnorm:      0.020796  CPU:    5.008
  Cycle:     79 Energy:      -426.026929  Gnorm:      0.017529  CPU:    5.084
  Cycle:     80 Energy:      -426.026969  Gnorm:      0.014871  CPU:    5.136
  Cycle:     81 Energy:      -426.026994  Gnorm:      0.010349  CPU:    5.192
  Cycle:     82 Energy:      -426.027012  Gnorm:      0.011664  CPU:    5.244
  Cycle:     83 Energy:      -426.027027  Gnorm:      0.010715  CPU:    5.292
  Cycle:     84 Energy:      -426.027047  Gnorm:      0.012917  CPU:    5.340
  ** Hessian calculated **
  Cycle:     85 Energy:      -426.027058  Gnorm:      0.008678  CPU:    5.428
  Cycle:     86 Energy:      -426.027071  Gnorm:      0.010315  CPU:    5.476
  Cycle:     87 Energy:      -426.027085  Gnorm:      0.008863  CPU:    5.528
  Cycle:     88 Energy:      -426.027101  Gnorm:      0.011306  CPU:    5.580
  Cycle:     89 Energy:      -426.027122  Gnorm:      0.013669  CPU:    5.632
  Cycle:     90 Energy:      -426.027156  Gnorm:      0.013161  CPU:    5.684
  Cycle:     91 Energy:      -426.027204  Gnorm:      0.021444  CPU:    5.744
  Cycle:     92 Energy:      -426.027274  Gnorm:      0.020195  CPU:    5.808
  Cycle:     93 Energy:      -426.027359  Gnorm:      0.026913  CPU:    5.856
  Cycle:     94 Energy:      -426.027465  Gnorm:      0.028282  CPU:    5.908
  ** Hessian calculated **
  Cycle:     95 Energy:      -426.027535  Gnorm:      0.021079  CPU:    6.004
  Cycle:     96 Energy:      -426.027590  Gnorm:      0.015698  CPU:    6.068
  Cycle:     97 Energy:      -426.027625  Gnorm:      0.014696  CPU:    6.116
  Cycle:     98 Energy:      -426.027647  Gnorm:      0.011029  CPU:    6.164
  Cycle:     99 Energy:      -426.027667  Gnorm:      0.010849  CPU:    6.216
  Cycle:    100 Energy:      -426.027682  Gnorm:      0.010830  CPU:    6.268
  Cycle:    101 Energy:      -426.027698  Gnorm:      0.010313  CPU:    6.320
  Cycle:    102 Energy:      -426.027720  Gnorm:      0.012530  CPU:    6.368
  Cycle:    103 Energy:      -426.027739  Gnorm:      0.012107  CPU:    6.416
  Cycle:    104 Energy:      -426.027762  Gnorm:      0.016569  CPU:    6.468
  ** Hessian calculated **
  Cycle:    105 Energy:      -426.027780  Gnorm:      0.010822  CPU:    6.556
  Cycle:    106 Energy:      -426.027795  Gnorm:      0.011701  CPU:    6.604
  Cycle:    107 Energy:      -426.027811  Gnorm:      0.008647  CPU:    6.652
  Cycle:    108 Energy:      -426.027822  Gnorm:      0.008473  CPU:    6.704
  Cycle:    109 Energy:      -426.027832  Gnorm:      0.009737  CPU:    6.756
  Cycle:    110 Energy:      -426.027847  Gnorm:      0.009891  CPU:    6.812
  Cycle:    111 Energy:      -426.027863  Gnorm:      0.012563  CPU:    6.860
  Cycle:    112 Energy:      -426.027886  Gnorm:      0.012604  CPU:    6.912
  Cycle:    113 Energy:      -426.027923  Gnorm:      0.014707  CPU:    6.960
  Cycle:    114 Energy:      -426.027967  Gnorm:      0.019305  CPU:    7.012
  ** Hessian calculated **
  Cycle:    115 Energy:      -426.028259  Gnorm:      0.019288  CPU:    7.144
  Cycle:    116 Energy:      -426.028715  Gnorm:      0.020014  CPU:    7.232
  Cycle:    117 Energy:      -426.029272  Gnorm:      0.021426  CPU:    7.312
  Cycle:    118 Energy:      -426.030186  Gnorm:      0.025561  CPU:    7.396
  Cycle:    119 Energy:      -426.031413  Gnorm:      0.039659  CPU:    7.472
  Cycle:    120 Energy:      -426.032227  Gnorm:      0.046958  CPU:    7.544
  Cycle:    121 Energy:      -426.032955  Gnorm:      0.089386  CPU:    7.596
  Cycle:    122 Energy:      -426.033340  Gnorm:      0.095161  CPU:    7.644
  Cycle:    123 Energy:      -426.034810  Gnorm:      0.087379  CPU:    7.708
  ** Hessian calculated **
  Cycle:    124 Energy:      -426.035325  Gnorm:      0.057309  CPU:    7.800
  Cycle:    125 Energy:      -426.035757  Gnorm:      0.046647  CPU:    7.852
  Cycle:    126 Energy:      -426.035985  Gnorm:      0.036403  CPU:    7.900
  Cycle:    127 Energy:      -426.036096  Gnorm:      0.023620  CPU:    7.952
  Cycle:    128 Energy:      -426.036159  Gnorm:      0.019321  CPU:    8.000
  Cycle:    129 Energy:      -426.036215  Gnorm:      0.018969  CPU:    8.052
  Cycle:    130 Energy:      -426.036259  Gnorm:      0.016732  CPU:    8.120
  Cycle:    131 Energy:      -426.036295  Gnorm:      0.017757  CPU:    8.176
  Cycle:    132 Energy:      -426.036329  Gnorm:      0.016556  CPU:    8.228
  Cycle:    133 Energy:      -426.036366  Gnorm:      0.016935  CPU:    8.288
  ** Hessian calculated **
  Cycle:    134 Energy:      -426.036385  Gnorm:      0.010383  CPU:    8.384
  Cycle:    135 Energy:      -426.036403  Gnorm:      0.012526  CPU:    8.432
  Cycle:    136 Energy:      -426.036421  Gnorm:      0.010672  CPU:    8.484
  Cycle:    137 Energy:      -426.036438  Gnorm:      0.011474  CPU:    8.532
  Cycle:    138 Energy:      -426.036457  Gnorm:      0.012002  CPU:    8.580
  Cycle:    139 Energy:      -426.036477  Gnorm:      0.011916  CPU:    8.632
  Cycle:    140 Energy:      -426.036504  Gnorm:      0.015412  CPU:    8.688
  Cycle:    141 Energy:      -426.036540  Gnorm:      0.016914  CPU:    8.740
  Cycle:    142 Energy:      -426.036583  Gnorm:      0.017225  CPU:    8.800
  Cycle:    143 Energy:      -426.036624  Gnorm:      0.020417  CPU:    8.848
  ** Hessian calculated **
  Cycle:    144 Energy:      -426.036651  Gnorm:      0.012415  CPU:    8.944
  Cycle:    145 Energy:      -426.036675  Gnorm:      0.012046  CPU:    8.996
  Cycle:    146 Energy:      -426.036694  Gnorm:      0.010407  CPU:    9.048
  Cycle:    147 Energy:      -426.036707  Gnorm:      0.008208  CPU:    9.104
  Cycle:    148 Energy:      -426.036717  Gnorm:      0.009439  CPU:    9.156
  Cycle:    149 Energy:      -426.036728  Gnorm:      0.009038  CPU:    9.212
  Cycle:    150 Energy:      -426.036740  Gnorm:      0.009042  CPU:    9.272
  Cycle:    151 Energy:      -426.036753  Gnorm:      0.011156  CPU:    9.340
  Cycle:    152 Energy:      -426.036767  Gnorm:      0.010222  CPU:    9.392
  Cycle:    153 Energy:      -426.036784  Gnorm:      0.014404  CPU:    9.444
  ** Hessian calculated **
  Cycle:    154 Energy:      -426.036799  Gnorm:      0.009112  CPU:    9.532
  Cycle:    155 Energy:      -426.036811  Gnorm:      0.010331  CPU:    9.588
  Cycle:    156 Energy:      -426.036822  Gnorm:      0.008215  CPU:    9.640
  Cycle:    157 Energy:      -426.036832  Gnorm:      0.008288  CPU:    9.692
  Cycle:    158 Energy:      -426.036841  Gnorm:      0.008731  CPU:    9.744
  Cycle:    159 Energy:      -426.036850  Gnorm:      0.007502  CPU:    9.800
  Cycle:    160 Energy:      -426.036862  Gnorm:      0.009974  CPU:    9.852
  Cycle:    161 Energy:      -426.036878  Gnorm:      0.011346  CPU:    9.916
  Cycle:    162 Energy:      -426.036900  Gnorm:      0.012581  CPU:    9.964
  Cycle:    163 Energy:      -426.036925  Gnorm:      0.018233  CPU:   10.016
  ** Hessian calculated **
  Cycle:    164 Energy:      -426.036948  Gnorm:      0.011485  CPU:   10.108
  Cycle:    165 Energy:      -426.036969  Gnorm:      0.011220  CPU:   10.160
  Cycle:    166 Energy:      -426.036984  Gnorm:      0.009371  CPU:   10.216
  Cycle:    167 Energy:      -426.036995  Gnorm:      0.007474  CPU:   10.272
  Cycle:    168 Energy:      -426.037004  Gnorm:      0.008588  CPU:   10.324
  Cycle:    169 Energy:      -426.037013  Gnorm:      0.008280  CPU:   10.376
  Cycle:    170 Energy:      -426.037023  Gnorm:      0.008355  CPU:   10.432
  Cycle:    171 Energy:      -426.037034  Gnorm:      0.009926  CPU:   10.484
  Cycle:    172 Energy:      -426.037046  Gnorm:      0.009251  CPU:   10.536
  Cycle:    173 Energy:      -426.037060  Gnorm:      0.013252  CPU:   10.584
  ** Hessian calculated **
  Cycle:    174 Energy:      -426.037072  Gnorm:      0.008558  CPU:   10.672
  Cycle:    175 Energy:      -426.037083  Gnorm:      0.009953  CPU:   10.728
  Cycle:    176 Energy:      -426.037094  Gnorm:      0.008031  CPU:   10.784
  Cycle:    177 Energy:      -426.037103  Gnorm:      0.007974  CPU:   10.840
  Cycle:    178 Energy:      -426.037112  Gnorm:      0.008621  CPU:   10.892
  Cycle:    179 Energy:      -426.037121  Gnorm:      0.007441  CPU:   10.948
  Cycle:    180 Energy:      -426.037132  Gnorm:      0.009308  CPU:   11.000
  Cycle:    181 Energy:      -426.037147  Gnorm:      0.010995  CPU:   11.052
  Cycle:    182 Energy:      -426.037166  Gnorm:      0.011631  CPU:   11.108
  Cycle:    183 Energy:      -426.037188  Gnorm:      0.017008  CPU:   11.160
  ** Hessian calculated **
  Cycle:    184 Energy:      -426.037328  Gnorm:      0.016948  CPU:   11.312
  Cycle:    185 Energy:      -426.037448  Gnorm:      0.017804  CPU:   11.400
  ** Hessian calculated **
  Cycle:    186 Energy:      -426.037819  Gnorm:      0.017877  CPU:   11.544
  Cycle:    187 Energy:      -426.038369  Gnorm:      0.019419  CPU:   11.636
  Cycle:    188 Energy:      -426.038937  Gnorm:      0.021999  CPU:   11.712
  Cycle:    189 Energy:      -426.039968  Gnorm:      0.036733  CPU:   11.796
  Cycle:    190 Energy:      -426.040423  Gnorm:      0.040593  CPU:   11.876
  Cycle:    191 Energy:      -426.041343  Gnorm:      0.086180  CPU:   11.940
  ** Hessian calculated **
  Cycle:    192 Energy:      -426.041983  Gnorm:      0.050530  CPU:   12.036
  Cycle:    193 Energy:      -426.042190  Gnorm:      0.030895  CPU:   12.088
  Cycle:    194 Energy:      -426.042350  Gnorm:      0.026472  CPU:   12.144
  Cycle:    195 Energy:      -426.042448  Gnorm:      0.023549  CPU:   12.200
  Cycle:    196 Energy:      -426.042500  Gnorm:      0.019111  CPU:   12.248
  Cycle:    197 Energy:      -426.042539  Gnorm:      0.014634  CPU:   12.308
  Cycle:    198 Energy:      -426.042562  Gnorm:      0.013169  CPU:   12.360
  Cycle:    199 Energy:      -426.042581  Gnorm:      0.010077  CPU:   12.412
  Cycle:    200 Energy:      -426.042591  Gnorm:      0.007794  CPU:   12.464
  Cycle:    201 Energy:      -426.042599  Gnorm:      0.007724  CPU:   12.516
  ** Hessian calculated **
  Cycle:    202 Energy:      -426.042610  Gnorm:      0.007724  CPU:   12.608
  Cycle:    203 Energy:      -426.042667  Gnorm:      0.007750  CPU:   12.712
  Cycle:    204 Energy:      -426.042689  Gnorm:      0.007769  CPU:   12.764
  ** Hessian calculated **
  Cycle:    205 Energy:      -426.042694  Gnorm:      0.005755  CPU:   12.852
  Cycle:    206 Energy:      -426.042699  Gnorm:      0.007694  CPU:   12.904
  Cycle:    207 Energy:      -426.042709  Gnorm:      0.007455  CPU:   12.952
  Cycle:    208 Energy:      -426.042721  Gnorm:      0.008583  CPU:   13.000
  Cycle:    209 Energy:      -426.042737  Gnorm:      0.010298  CPU:   13.048
  Cycle:    210 Energy:      -426.042755  Gnorm:      0.011611  CPU:   13.096
  Cycle:    211 Energy:      -426.042777  Gnorm:      0.011350  CPU:   13.148
  Cycle:    212 Energy:      -426.042806  Gnorm:      0.013845  CPU:   13.200
  Cycle:    213 Energy:      -426.042831  Gnorm:      0.014745  CPU:   13.248
  Cycle:    214 Energy:      -426.042864  Gnorm:      0.018053  CPU:   13.300
  ** Hessian calculated **
  Cycle:    215 Energy:      -426.042886  Gnorm:      0.010512  CPU:   13.388
  Cycle:    216 Energy:      -426.042900  Gnorm:      0.010706  CPU:   13.436
  Cycle:    217 Energy:      -426.042913  Gnorm:      0.007584  CPU:   13.484
  Cycle:    218 Energy:      -426.042922  Gnorm:      0.009241  CPU:   13.532
  Cycle:    219 Energy:      -426.042933  Gnorm:      0.008893  CPU:   13.592
  Cycle:    220 Energy:      -426.042944  Gnorm:      0.010929  CPU:   13.640
  Cycle:    221 Energy:      -426.042961  Gnorm:      0.010630  CPU:   13.696
  Cycle:    222 Energy:      -426.042973  Gnorm:      0.009036  CPU:   13.752
  Cycle:    223 Energy:      -426.042983  Gnorm:      0.011052  CPU:   13.804
  Cycle:    224 Energy:      -426.043003  Gnorm:      0.009397  CPU:   13.856
  ** Hessian calculated **
  Cycle:    225 Energy:      -426.043012  Gnorm:      0.008082  CPU:   13.952
  Cycle:    226 Energy:      -426.043021  Gnorm:      0.007698  CPU:   14.000
  Cycle:    227 Energy:      -426.043030  Gnorm:      0.008662  CPU:   14.056
  Cycle:    228 Energy:      -426.043039  Gnorm:      0.007321  CPU:   14.108
  Cycle:    229 Energy:      -426.043047  Gnorm:      0.007307  CPU:   14.160
  Cycle:    230 Energy:      -426.043054  Gnorm:      0.006591  CPU:   14.220
  Cycle:    231 Energy:      -426.043063  Gnorm:      0.007703  CPU:   14.276
  Cycle:    232 Energy:      -426.043077  Gnorm:      0.008541  CPU:   14.328
  Cycle:    233 Energy:      -426.043091  Gnorm:      0.011721  CPU:   14.376
  Cycle:    234 Energy:      -426.043134  Gnorm:      0.022290  CPU:   14.460
  ** Hessian calculated **
  Cycle:    235 Energy:      -426.043166  Gnorm:      0.016922  CPU:   14.556
  Cycle:    236 Energy:      -426.043195  Gnorm:      0.014107  CPU:   14.608
  Cycle:    237 Energy:      -426.043212  Gnorm:      0.008240  CPU:   14.656
  Cycle:    238 Energy:      -426.043222  Gnorm:      0.007826  CPU:   14.732
  Cycle:    239 Energy:      -426.043231  Gnorm:      0.007907  CPU:   14.812
  Cycle:    240 Energy:      -426.043239  Gnorm:      0.007713  CPU:   14.864
  Cycle:    241 Energy:      -426.043250  Gnorm:      0.008540  CPU:   14.916
  Cycle:    242 Energy:      -426.043261  Gnorm:      0.007826  CPU:   14.968
  Cycle:    243 Energy:      -426.043268  Gnorm:      0.006259  CPU:   15.016
  Cycle:    244 Energy:      -426.043275  Gnorm:      0.010542  CPU:   15.068
  ** Hessian calculated **
  Cycle:    245 Energy:      -426.043281  Gnorm:      0.005761  CPU:   15.160
  Cycle:    246 Energy:      -426.043287  Gnorm:      0.007462  CPU:   15.216
  Cycle:    247 Energy:      -426.043296  Gnorm:      0.006888  CPU:   15.272
  Cycle:    248 Energy:      -426.043305  Gnorm:      0.007624  CPU:   15.324
  Cycle:    249 Energy:      -426.043312  Gnorm:      0.006622  CPU:   15.376
  Cycle:    250 Energy:      -426.043320  Gnorm:      0.007385  CPU:   15.428
  Cycle:    251 Energy:      -426.043329  Gnorm:      0.007611  CPU:   15.480
  Cycle:    252 Energy:      -426.043345  Gnorm:      0.009386  CPU:   15.532
  Cycle:    253 Energy:      -426.043373  Gnorm:      0.013907  CPU:   15.600
  Cycle:    254 Energy:      -426.043404  Gnorm:      0.018374  CPU:   15.652
  ** Hessian calculated **
  Cycle:    255 Energy:      -426.043585  Gnorm:      0.018190  CPU:   15.796
  Cycle:    256 Energy:      -426.043873  Gnorm:      0.018142  CPU:   15.892
  Cycle:    257 Energy:      -426.044221  Gnorm:      0.018325  CPU:   15.968
  Cycle:    258 Energy:      -426.044622  Gnorm:      0.022194  CPU:   16.060
  Cycle:    259 Energy:      -426.045254  Gnorm:      0.025649  CPU:   16.136
  Cycle:    260 Energy:      -426.046088  Gnorm:      0.058152  CPU:   16.204
  ** Hessian calculated **
  Cycle:    261 Energy:      -426.046377  Gnorm:      0.034588  CPU:   16.300
  Cycle:    262 Energy:      -426.046467  Gnorm:      0.020423  CPU:   16.352
  Cycle:    263 Energy:      -426.046518  Gnorm:      0.015021  CPU:   16.404
  Cycle:    264 Energy:      -426.046550  Gnorm:      0.015641  CPU:   16.460
  Cycle:    265 Energy:      -426.046574  Gnorm:      0.010900  CPU:   16.512
  Cycle:    266 Energy:      -426.046589  Gnorm:      0.009849  CPU:   16.568
  Cycle:    267 Energy:      -426.046600  Gnorm:      0.008721  CPU:   16.620
  Cycle:    268 Energy:      -426.046611  Gnorm:      0.006701  CPU:   16.672
  Cycle:    269 Energy:      -426.046615  Gnorm:      0.005538  CPU:   16.724
  Cycle:    270 Energy:      -426.046620  Gnorm:      0.005906  CPU:   16.780
  ** Hessian calculated **
  Cycle:    271 Energy:      -426.046623  Gnorm:      0.004404  CPU:   16.864
  Cycle:    272 Energy:      -426.046626  Gnorm:      0.006062  CPU:   16.912
  Cycle:    273 Energy:      -426.046632  Gnorm:      0.005340  CPU:   16.968
  Cycle:    274 Energy:      -426.046640  Gnorm:      0.005616  CPU:   17.024
  Cycle:    275 Energy:      -426.046650  Gnorm:      0.007149  CPU:   17.072
  Cycle:    276 Energy:      -426.046662  Gnorm:      0.008064  CPU:   17.124
  Cycle:    277 Energy:      -426.046677  Gnorm:      0.010672  CPU:   17.176
  Cycle:    278 Energy:      -426.046703  Gnorm:      0.014102  CPU:   17.228
  Cycle:    279 Energy:      -426.046734  Gnorm:      0.016849  CPU:   17.284
  Cycle:    280 Energy:      -426.046782  Gnorm:      0.023085  CPU:   17.336
  ** Hessian calculated **
  Cycle:    281 Energy:      -426.046814  Gnorm:      0.013967  CPU:   17.428
  Cycle:    282 Energy:      -426.046842  Gnorm:      0.014555  CPU:   17.476
  Cycle:    283 Energy:      -426.046861  Gnorm:      0.008399  CPU:   17.528
  Cycle:    284 Energy:      -426.046868  Gnorm:      0.007789  CPU:   17.580
  Cycle:    285 Energy:      -426.046877  Gnorm:      0.008313  CPU:   17.628
  Cycle:    286 Energy:      -426.046886  Gnorm:      0.008690  CPU:   17.684
  Cycle:    287 Energy:      -426.046896  Gnorm:      0.007986  CPU:   17.736
  Cycle:    288 Energy:      -426.046903  Gnorm:      0.005760  CPU:   17.792
  Cycle:    289 Energy:      -426.046908  Gnorm:      0.008349  CPU:   17.844
  Cycle:    290 Energy:      -426.046918  Gnorm:      0.008012  CPU:   17.896
  ** Hessian calculated **
  Cycle:    291 Energy:      -426.046923  Gnorm:      0.005915  CPU:   17.984
  Cycle:    292 Energy:      -426.046928  Gnorm:      0.005257  CPU:   18.040
  Cycle:    293 Energy:      -426.046934  Gnorm:      0.005311  CPU:   18.092
  Cycle:    294 Energy:      -426.046941  Gnorm:      0.005155  CPU:   18.144
  Cycle:    295 Energy:      -426.046948  Gnorm:      0.007131  CPU:   18.196
  Cycle:    296 Energy:      -426.046953  Gnorm:      0.005667  CPU:   18.248
  Cycle:    297 Energy:      -426.046962  Gnorm:      0.009192  CPU:   18.300
  Cycle:    298 Energy:      -426.046975  Gnorm:      0.009071  CPU:   18.352
  Cycle:    299 Energy:      -426.046992  Gnorm:      0.010790  CPU:   18.404
  Cycle:    300 Energy:      -426.047033  Gnorm:      0.018294  CPU:   18.484
  ** Hessian calculated **
  Cycle:    301 Energy:      -426.047060  Gnorm:      0.014429  CPU:   18.572
  Cycle:    302 Energy:      -426.047084  Gnorm:      0.012564  CPU:   18.624
  Cycle:    303 Energy:      -426.047098  Gnorm:      0.006419  CPU:   18.680
  Cycle:    304 Energy:      -426.047105  Gnorm:      0.006912  CPU:   18.736
  Cycle:    305 Energy:      -426.047110  Gnorm:      0.006866  CPU:   18.788
  Cycle:    306 Energy:      -426.047117  Gnorm:      0.006447  CPU:   18.836
  Cycle:    307 Energy:      -426.047125  Gnorm:      0.008197  CPU:   18.888
  Cycle:    308 Energy:      -426.047132  Gnorm:      0.004803  CPU:   18.940
  Cycle:    309 Energy:      -426.047137  Gnorm:      0.007554  CPU:   18.992
  Cycle:    310 Energy:      -426.047146  Gnorm:      0.007747  CPU:   19.048
  ** Hessian calculated **
  Cycle:    311 Energy:      -426.047151  Gnorm:      0.005965  CPU:   19.140
  Cycle:    312 Energy:      -426.047154  Gnorm:      0.005270  CPU:   19.192
  Cycle:    313 Energy:      -426.047161  Gnorm:      0.005736  CPU:   19.244
  Cycle:    314 Energy:      -426.047168  Gnorm:      0.005563  CPU:   19.300
  Cycle:    315 Energy:      -426.047174  Gnorm:      0.006256  CPU:   19.352
  Cycle:    316 Energy:      -426.047180  Gnorm:      0.006139  CPU:   19.408
  Cycle:    317 Energy:      -426.047187  Gnorm:      0.008849  CPU:   19.460
  Cycle:    318 Energy:      -426.047198  Gnorm:      0.008845  CPU:   19.512
  Cycle:    319 Energy:      -426.047220  Gnorm:      0.013591  CPU:   19.580
  Cycle:    320 Energy:      -426.047257  Gnorm:      0.018739  CPU:   19.644
  ** Hessian calculated **
  Cycle:    321 Energy:      -426.047440  Gnorm:      0.018498  CPU:   19.792
  Cycle:    322 Energy:      -426.047720  Gnorm:      0.018307  CPU:   19.884
  Cycle:    323 Energy:      -426.047982  Gnorm:      0.018278  CPU:   19.960
  Cycle:    324 Energy:      -426.048351  Gnorm:      0.018488  CPU:   20.048
  Cycle:    325 Energy:      -426.048851  Gnorm:      0.028158  CPU:   20.124
  Cycle:    326 Energy:      -426.049149  Gnorm:      0.028876  CPU:   20.200
  Cycle:    327 Energy:      -426.049923  Gnorm:      0.054536  CPU:   20.268
  Cycle:    328 Energy:      -426.050249  Gnorm:      0.064407  CPU:   20.336
  ** Hessian calculated **
  Cycle:    329 Energy:      -426.050576  Gnorm:      0.041242  CPU:   20.428
  Cycle:    330 Energy:      -426.050727  Gnorm:      0.028733  CPU:   20.480
  Cycle:    331 Energy:      -426.050812  Gnorm:      0.018051  CPU:   20.532
  Cycle:    332 Energy:      -426.050848  Gnorm:      0.014743  CPU:   20.584
  Cycle:    333 Energy:      -426.050869  Gnorm:      0.011880  CPU:   20.632
  Cycle:    334 Energy:      -426.050886  Gnorm:      0.010784  CPU:   20.688
  Cycle:    335 Energy:      -426.050897  Gnorm:      0.009226  CPU:   20.744
  Cycle:    336 Energy:      -426.050907  Gnorm:      0.007818  CPU:   20.800
  Cycle:    337 Energy:      -426.050914  Gnorm:      0.007179  CPU:   20.852
  Cycle:    338 Energy:      -426.050921  Gnorm:      0.006902  CPU:   20.908
  ** Hessian calculated **
  Cycle:    339 Energy:      -426.050930  Gnorm:      0.006899  CPU:   20.996
  Cycle:    340 Energy:      -426.050944  Gnorm:      0.006896  CPU:   21.056
  Cycle:    341 Energy:      -426.051021  Gnorm:      0.006914  CPU:   21.156
  Cycle:    342 Energy:      -426.051164  Gnorm:      0.007093  CPU:   21.248
  Cycle:    343 Energy:      -426.051284  Gnorm:      0.007047  CPU:   21.340
  Cycle:    344 Energy:      -426.051378  Gnorm:      0.007790  CPU:   21.416
  ** Hessian calculated **
  Cycle:    345 Energy:      -426.051646  Gnorm:      0.008243  CPU:   21.552
  Cycle:    346 Energy:      -426.051995  Gnorm:      0.019297  CPU:   21.624
  ** Hessian calculated **
  Cycle:    347 Energy:      -426.052019  Gnorm:      0.012794  CPU:   21.712
  Cycle:    348 Energy:      -426.052034  Gnorm:      0.009872  CPU:   21.768
  Cycle:    349 Energy:      -426.052041  Gnorm:      0.005030  CPU:   21.816
  Cycle:    350 Energy:      -426.052044  Gnorm:      0.004516  CPU:   21.864
  Cycle:    351 Energy:      -426.052047  Gnorm:      0.005231  CPU:   21.916
  Cycle:    352 Energy:      -426.052052  Gnorm:      0.004779  CPU:   21.964
  Cycle:    353 Energy:      -426.052059  Gnorm:      0.005254  CPU:   22.024
  Cycle:    354 Energy:      -426.052068  Gnorm:      0.007214  CPU:   22.088
  Cycle:    355 Energy:      -426.052078  Gnorm:      0.008752  CPU:   22.140
  Cycle:    356 Energy:      -426.052093  Gnorm:      0.009721  CPU:   22.192
  ** Hessian calculated **
  Cycle:    357 Energy:      -426.052170  Gnorm:      0.009687  CPU:   22.336
  Cycle:    358 Energy:      -426.052257  Gnorm:      0.009717  CPU:   22.424
  ** Hessian calculated **
  Cycle:    359 Energy:      -426.052265  Gnorm:      0.010057  CPU:   22.516
  Cycle:    360 Energy:      -426.052276  Gnorm:      0.006655  CPU:   22.564
  Cycle:    361 Energy:      -426.052281  Gnorm:      0.005072  CPU:   22.616
  Cycle:    362 Energy:      -426.052284  Gnorm:      0.005160  CPU:   22.668
  Cycle:    363 Energy:      -426.052287  Gnorm:      0.004810  CPU:   22.720
  Cycle:    364 Energy:      -426.052291  Gnorm:      0.005117  CPU:   22.772
  Cycle:    365 Energy:      -426.052295  Gnorm:      0.006592  CPU:   22.824
  Cycle:    366 Energy:      -426.052304  Gnorm:      0.005959  CPU:   22.876
  Cycle:    367 Energy:      -426.052316  Gnorm:      0.006317  CPU:   22.928
  Cycle:    368 Energy:      -426.052331  Gnorm:      0.007703  CPU:   22.980
  ** Hessian calculated **
  Cycle:    369 Energy:      -426.052425  Gnorm:      0.007714  CPU:   23.120
  Cycle:    370 Energy:      -426.052491  Gnorm:      0.007871  CPU:   23.212
  ** Hessian calculated **
  Cycle:    371 Energy:      -426.052495  Gnorm:      0.006613  CPU:   23.308
  Cycle:    372 Energy:      -426.052505  Gnorm:      0.004473  CPU:   23.360
  Cycle:    373 Energy:      -426.052510  Gnorm:      0.005590  CPU:   23.412
  Cycle:    374 Energy:      -426.052513  Gnorm:      0.004521  CPU:   23.464
  Cycle:    375 Energy:      -426.052517  Gnorm:      0.005820  CPU:   23.512
  Cycle:    376 Energy:      -426.052521  Gnorm:      0.005011  CPU:   23.564
  Cycle:    377 Energy:      -426.052525  Gnorm:      0.006220  CPU:   23.620
  Cycle:    378 Energy:      -426.052532  Gnorm:      0.006349  CPU:   23.672
  Cycle:    379 Energy:      -426.052542  Gnorm:      0.006924  CPU:   23.748
  Cycle:    380 Energy:      -426.052554  Gnorm:      0.007723  CPU:   23.812
  ** Hessian calculated **
  Cycle:    381 Energy:      -426.052610  Gnorm:      0.007697  CPU:   23.960
  Cycle:    382 Energy:      -426.052697  Gnorm:      0.007695  CPU:   24.080
  Cycle:    383 Energy:      -426.052785  Gnorm:      0.007808  CPU:   24.176
  ** Hessian calculated **
  Cycle:    384 Energy:      -426.052791  Gnorm:      0.007503  CPU:   24.268
  Cycle:    385 Energy:      -426.052798  Gnorm:      0.006891  CPU:   24.324
  Cycle:    386 Energy:      -426.052803  Gnorm:      0.005772  CPU:   24.376
  Cycle:    387 Energy:      -426.052807  Gnorm:      0.006101  CPU:   24.428
  Cycle:    388 Energy:      -426.052812  Gnorm:      0.006062  CPU:   24.480
  Cycle:    389 Energy:      -426.052815  Gnorm:      0.004975  CPU:   24.528
  Cycle:    390 Energy:      -426.052819  Gnorm:      0.005669  CPU:   24.584
  Cycle:    391 Energy:      -426.052825  Gnorm:      0.006853  CPU:   24.636
  Cycle:    392 Energy:      -426.052831  Gnorm:      0.006600  CPU:   24.692
  Cycle:    393 Energy:      -426.052838  Gnorm:      0.007493  CPU:   24.744
  ** Hessian calculated **
  Cycle:    394 Energy:      -426.052842  Gnorm:      0.005416  CPU:   24.836
  Cycle:    395 Energy:      -426.052848  Gnorm:      0.006403  CPU:   24.888
  Cycle:    396 Energy:      -426.052852  Gnorm:      0.005209  CPU:   24.940
  Cycle:    397 Energy:      -426.052856  Gnorm:      0.004517  CPU:   24.992
  Cycle:    398 Energy:      -426.052860  Gnorm:      0.006269  CPU:   25.044
  Cycle:    399 Energy:      -426.052864  Gnorm:      0.005699  CPU:   25.100
  Cycle:    400 Energy:      -426.052869  Gnorm:      0.005966  CPU:   25.148
  Cycle:    401 Energy:      -426.052875  Gnorm:      0.006602  CPU:   25.204
  Cycle:    402 Energy:      -426.052881  Gnorm:      0.006430  CPU:   25.256
  Cycle:    403 Energy:      -426.052886  Gnorm:      0.007165  CPU:   25.308
  ** Hessian calculated **
  Cycle:    404 Energy:      -426.052890  Gnorm:      0.005735  CPU:   25.404
  Cycle:    405 Energy:      -426.052895  Gnorm:      0.006404  CPU:   25.456
  Cycle:    406 Energy:      -426.052899  Gnorm:      0.005123  CPU:   25.504
  Cycle:    407 Energy:      -426.052904  Gnorm:      0.005739  CPU:   25.556
  Cycle:    408 Energy:      -426.052909  Gnorm:      0.006070  CPU:   25.604
  Cycle:    409 Energy:      -426.052912  Gnorm:      0.004446  CPU:   25.660
  Cycle:    410 Energy:      -426.052916  Gnorm:      0.005308  CPU:   25.716
  Cycle:    411 Energy:      -426.052921  Gnorm:      0.007079  CPU:   25.780
  Cycle:    412 Energy:      -426.052927  Gnorm:      0.005649  CPU:   25.832
  Cycle:    413 Energy:      -426.052932  Gnorm:      0.007321  CPU:   25.880
  ** Hessian calculated **
  Cycle:    414 Energy:      -426.052936  Gnorm:      0.005118  CPU:   25.972
  Cycle:    415 Energy:      -426.052941  Gnorm:      0.006118  CPU:   26.024
  Cycle:    416 Energy:      -426.052946  Gnorm:      0.004907  CPU:   26.076
  Cycle:    417 Energy:      -426.052949  Gnorm:      0.004222  CPU:   26.136
  Cycle:    418 Energy:      -426.052953  Gnorm:      0.006017  CPU:   26.192
  Cycle:    419 Energy:      -426.052958  Gnorm:      0.005325  CPU:   26.240
  Cycle:    420 Energy:      -426.052962  Gnorm:      0.005143  CPU:   26.296
  Cycle:    421 Energy:      -426.052967  Gnorm:      0.006327  CPU:   26.348
  Cycle:    422 Energy:      -426.052973  Gnorm:      0.005734  CPU:   26.404
  Cycle:    423 Energy:      -426.052977  Gnorm:      0.006970  CPU:   26.456
  ** Hessian calculated **
  Cycle:    424 Energy:      -426.052982  Gnorm:      0.006966  CPU:   26.544
  Cycle:    425 Energy:      -426.052990  Gnorm:      0.006961  CPU:   26.596
  Cycle:    426 Energy:      -426.053002  Gnorm:      0.006954  CPU:   26.644
  Cycle:    427 Energy:      -426.053064  Gnorm:      0.006954  CPU:   26.748
  Cycle:    428 Energy:      -426.053130  Gnorm:      0.007082  CPU:   26.840
  ** Hessian calculated **
  Cycle:    429 Energy:      -426.053134  Gnorm:      0.005333  CPU:   26.932
  Cycle:    430 Energy:      -426.053139  Gnorm:      0.005648  CPU:   26.980
  Cycle:    431 Energy:      -426.053143  Gnorm:      0.004720  CPU:   27.032
  Cycle:    432 Energy:      -426.053147  Gnorm:      0.005451  CPU:   27.084
  Cycle:    433 Energy:      -426.053152  Gnorm:      0.005866  CPU:   27.136
  Cycle:    434 Energy:      -426.053155  Gnorm:      0.003994  CPU:   27.188
  Cycle:    435 Energy:      -426.053159  Gnorm:      0.005088  CPU:   27.240
  Cycle:    436 Energy:      -426.053164  Gnorm:      0.006484  CPU:   27.296
  Cycle:    437 Energy:      -426.053169  Gnorm:      0.005772  CPU:   27.344
  Cycle:    438 Energy:      -426.053174  Gnorm:      0.007362  CPU:   27.396
  ** Hessian calculated **
  Cycle:    439 Energy:      -426.053178  Gnorm:      0.005378  CPU:   27.492
  Cycle:    440 Energy:      -426.053183  Gnorm:      0.006235  CPU:   27.544
  Cycle:    441 Energy:      -426.053188  Gnorm:      0.004785  CPU:   27.596
  Cycle:    442 Energy:      -426.053191  Gnorm:      0.003862  CPU:   27.644
  Cycle:    443 Energy:      -426.053194  Gnorm:      0.005246  CPU:   27.700
  Cycle:    444 Energy:      -426.053199  Gnorm:      0.004886  CPU:   27.756
  Cycle:    445 Energy:      -426.053204  Gnorm:      0.004624  CPU:   27.808
  Cycle:    446 Energy:      -426.053208  Gnorm:      0.005712  CPU:   27.888
  Cycle:    447 Energy:      -426.053212  Gnorm:      0.005268  CPU:   27.968
  Cycle:    448 Energy:      -426.053216  Gnorm:      0.006865  CPU:   28.032
  ** Hessian calculated **
  Cycle:    449 Energy:      -426.053220  Gnorm:      0.005040  CPU:   28.124
  Cycle:    450 Energy:      -426.053224  Gnorm:      0.005199  CPU:   28.180
  Cycle:    451 Energy:      -426.053227  Gnorm:      0.004374  CPU:   28.228
  Cycle:    452 Energy:      -426.053231  Gnorm:      0.005362  CPU:   28.284
  Cycle:    453 Energy:      -426.053236  Gnorm:      0.005657  CPU:   28.336
  Cycle:    454 Energy:      -426.053239  Gnorm:      0.003905  CPU:   28.384
  Cycle:    455 Energy:      -426.053243  Gnorm:      0.005210  CPU:   28.436
  Cycle:    456 Energy:      -426.053248  Gnorm:      0.005524  CPU:   28.488
  Cycle:    457 Energy:      -426.053253  Gnorm:      0.005735  CPU:   28.536
  Cycle:    458 Energy:      -426.053258  Gnorm:      0.007521  CPU:   28.584
  ** Hessian calculated **
  Cycle:    459 Energy:      -426.053262  Gnorm:      0.005756  CPU:   28.680
  Cycle:    460 Energy:      -426.053268  Gnorm:      0.006216  CPU:   28.736
  Cycle:    461 Energy:      -426.053273  Gnorm:      0.004833  CPU:   28.792
  Cycle:    462 Energy:      -426.053276  Gnorm:      0.003942  CPU:   28.844
  Cycle:    463 Energy:      -426.053279  Gnorm:      0.005066  CPU:   28.892
  Cycle:    464 Energy:      -426.053284  Gnorm:      0.005448  CPU:   28.944
  Cycle:    465 Energy:      -426.053288  Gnorm:      0.004336  CPU:   28.992
  Cycle:    466 Energy:      -426.053291  Gnorm:      0.005239  CPU:   29.044
  Cycle:    467 Energy:      -426.053295  Gnorm:      0.004714  CPU:   29.096
  Cycle:    468 Energy:      -426.053299  Gnorm:      0.006947  CPU:   29.148
  ** Hessian calculated **
  Cycle:    469 Energy:      -426.053303  Gnorm:      0.004702  CPU:   29.240
  Cycle:    470 Energy:      -426.053306  Gnorm:      0.005035  CPU:   29.296
  Cycle:    471 Energy:      -426.053309  Gnorm:      0.004037  CPU:   29.348
  Cycle:    472 Energy:      -426.053313  Gnorm:      0.004913  CPU:   29.396
  Cycle:    473 Energy:      -426.053317  Gnorm:      0.005324  CPU:   29.452
  Cycle:    474 Energy:      -426.053321  Gnorm:      0.004028  CPU:   29.500
  Cycle:    475 Energy:      -426.053324  Gnorm:      0.005193  CPU:   29.552
  Cycle:    476 Energy:      -426.053329  Gnorm:      0.005113  CPU:   29.604
  Cycle:    477 Energy:      -426.053335  Gnorm:      0.005939  CPU:   29.656
  Cycle:    478 Energy:      -426.053340  Gnorm:      0.007323  CPU:   29.716
  ** Hessian calculated **
  Cycle:    479 Energy:      -426.053351  Gnorm:      0.007314  CPU:   29.808
  Cycle:    480 Energy:      -426.053412  Gnorm:      0.007260  CPU:   29.912
  Cycle:    481 Energy:      -426.053477  Gnorm:      0.007244  CPU:   30.000
  Cycle:    482 Energy:      -426.053487  Gnorm:      0.007289  CPU:   30.052
  ** Hessian calculated **
  Cycle:    483 Energy:      -426.053492  Gnorm:      0.005883  CPU:   30.144
  Cycle:    484 Energy:      -426.053497  Gnorm:      0.005934  CPU:   30.200
  Cycle:    485 Energy:      -426.053503  Gnorm:      0.005554  CPU:   30.252
  Cycle:    486 Energy:      -426.053506  Gnorm:      0.003816  CPU:   30.308
  Cycle:    487 Energy:      -426.053509  Gnorm:      0.005244  CPU:   30.360
  Cycle:    488 Energy:      -426.053513  Gnorm:      0.005356  CPU:   30.412
  Cycle:    489 Energy:      -426.053518  Gnorm:      0.004373  CPU:   30.464
  Cycle:    490 Energy:      -426.053520  Gnorm:      0.004555  CPU:   30.516
  Cycle:    491 Energy:      -426.053523  Gnorm:      0.004382  CPU:   30.564
  Cycle:    492 Energy:      -426.053528  Gnorm:      0.005730  CPU:   30.616
  ** Hessian calculated **
  Cycle:    493 Energy:      -426.053530  Gnorm:      0.004327  CPU:   30.704
  Cycle:    494 Energy:      -426.053533  Gnorm:      0.004623  CPU:   30.760
  Cycle:    495 Energy:      -426.053536  Gnorm:      0.004127  CPU:   30.812
  Cycle:    496 Energy:      -426.053540  Gnorm:      0.004502  CPU:   30.864
  Cycle:    497 Energy:      -426.053544  Gnorm:      0.004843  CPU:   30.916
  Cycle:    498 Energy:      -426.053547  Gnorm:      0.004119  CPU:   30.964
  Cycle:    499 Energy:      -426.053551  Gnorm:      0.005194  CPU:   31.016
  Cycle:    500 Energy:      -426.053556  Gnorm:      0.005566  CPU:   31.072
  Cycle:    501 Energy:      -426.053562  Gnorm:      0.005643  CPU:   31.140
  Cycle:    502 Energy:      -426.053568  Gnorm:      0.009124  CPU:   31.196
  ** Hessian calculated **
  Cycle:    503 Energy:      -426.053573  Gnorm:      0.005872  CPU:   31.292
  Cycle:    504 Energy:      -426.053580  Gnorm:      0.005679  CPU:   31.340
  Cycle:    505 Energy:      -426.053585  Gnorm:      0.005446  CPU:   31.392
  Cycle:    506 Energy:      -426.053589  Gnorm:      0.003977  CPU:   31.448
  Cycle:    507 Energy:      -426.053591  Gnorm:      0.005336  CPU:   31.496
  Cycle:    508 Energy:      -426.053596  Gnorm:      0.005025  CPU:   31.552
  Cycle:    509 Energy:      -426.053599  Gnorm:      0.004512  CPU:   31.600
  Cycle:    510 Energy:      -426.053602  Gnorm:      0.004223  CPU:   31.656
  Cycle:    511 Energy:      -426.053605  Gnorm:      0.004050  CPU:   31.708
  Cycle:    512 Energy:      -426.053608  Gnorm:      0.005946  CPU:   31.764
  ** Hessian calculated **
  Cycle:    513 Energy:      -426.053611  Gnorm:      0.003982  CPU:   31.856
  Cycle:    514 Energy:      -426.053613  Gnorm:      0.004514  CPU:   31.908
  Cycle:    515 Energy:      -426.053616  Gnorm:      0.004032  CPU:   31.960
  Cycle:    516 Energy:      -426.053619  Gnorm:      0.005198  CPU:   32.012
  Cycle:    517 Energy:      -426.053624  Gnorm:      0.005055  CPU:   32.068
  Cycle:    518 Energy:      -426.053627  Gnorm:      0.003755  CPU:   32.120
  Cycle:    519 Energy:      -426.053630  Gnorm:      0.005097  CPU:   32.176
  Cycle:    520 Energy:      -426.053635  Gnorm:      0.004693  CPU:   32.228
  Cycle:    521 Energy:      -426.053641  Gnorm:      0.004558  CPU:   32.284
  Cycle:    522 Energy:      -426.053648  Gnorm:      0.007642  CPU:   32.340
  ** Hessian calculated **
  Cycle:    523 Energy:      -426.053653  Gnorm:      0.006568  CPU:   32.432
  Cycle:    524 Energy:      -426.053662  Gnorm:      0.004473  CPU:   32.484
  Cycle:    525 Energy:      -426.053667  Gnorm:      0.005074  CPU:   32.536
  Cycle:    526 Energy:      -426.053669  Gnorm:      0.003622  CPU:   32.592
  Cycle:    527 Energy:      -426.053673  Gnorm:      0.003844  CPU:   32.644
  Cycle:    528 Energy:      -426.053677  Gnorm:      0.003632  CPU:   32.696
  Cycle:    529 Energy:      -426.053681  Gnorm:      0.004481  CPU:   32.748
  Cycle:    530 Energy:      -426.053683  Gnorm:      0.004057  CPU:   32.804
  Cycle:    531 Energy:      -426.053686  Gnorm:      0.004336  CPU:   32.856
  Cycle:    532 Energy:      -426.053690  Gnorm:      0.005837  CPU:   32.908
  ** Hessian calculated **
  Cycle:    533 Energy:      -426.053693  Gnorm:      0.003914  CPU:   33.000
  Cycle:    534 Energy:      -426.053695  Gnorm:      0.004076  CPU:   33.052
  Cycle:    535 Energy:      -426.053696  Gnorm:      0.002858  CPU:   33.104
  Cycle:    536 Energy:      -426.053699  Gnorm:      0.003414  CPU:   33.156
  Cycle:    537 Energy:      -426.053703  Gnorm:      0.002735  CPU:   33.212
  Cycle:    538 Energy:      -426.053707  Gnorm:      0.002712  CPU:   33.268
  Cycle:    539 Energy:      -426.053711  Gnorm:      0.003893  CPU:   33.324
  Cycle:    540 Energy:      -426.053714  Gnorm:      0.005320  CPU:   33.372
  Cycle:    541 Energy:      -426.053720  Gnorm:      0.007381  CPU:   33.424
  Cycle:    542 Energy:      -426.053732  Gnorm:      0.006654  CPU:   33.476
  ** Hessian calculated **
  Cycle:    543 Energy:      -426.053743  Gnorm:      0.006646  CPU:   33.580
  Cycle:    544 Energy:      -426.053803  Gnorm:      0.006592  CPU:   33.680
  Cycle:    545 Energy:      -426.053900  Gnorm:      0.006501  CPU:   33.772
  Cycle:    546 Energy:      -426.054056  Gnorm:      0.006513  CPU:   33.860
  Cycle:    547 Energy:      -426.054190  Gnorm:      0.006857  CPU:   33.940
  Cycle:    548 Energy:      -426.054239  Gnorm:      0.009958  CPU:   34.020
  ** Hessian calculated **
  Cycle:    549 Energy:      -426.054905  Gnorm:      0.021044  CPU:   34.160
  Cycle:    550 Energy:      -426.055152  Gnorm:      0.025969  CPU:   34.240
  Cycle:    551 Energy:      -426.055426  Gnorm:      0.046118  CPU:   34.312
  ** Hessian calculated **
  Cycle:    552 Energy:      -426.055604  Gnorm:      0.026044  CPU:   34.404
  Cycle:    553 Energy:      -426.055660  Gnorm:      0.015781  CPU:   34.452
  Cycle:    554 Energy:      -426.055693  Gnorm:      0.012414  CPU:   34.504
  Cycle:    555 Energy:      -426.055714  Gnorm:      0.010890  CPU:   34.552
  Cycle:    556 Energy:      -426.055730  Gnorm:      0.007973  CPU:   34.608
  Cycle:    557 Energy:      -426.055738  Gnorm:      0.007645  CPU:   34.660
  Cycle:    558 Energy:      -426.055745  Gnorm:      0.005634  CPU:   34.708
  Cycle:    559 Energy:      -426.055749  Gnorm:      0.004668  CPU:   34.768
  Cycle:    560 Energy:      -426.055751  Gnorm:      0.003863  CPU:   34.820
  Cycle:    561 Energy:      -426.055754  Gnorm:      0.003825  CPU:   34.872
  ** Hessian calculated **
  Cycle:    562 Energy:      -426.055756  Gnorm:      0.003824  CPU:   34.964
  Cycle:    563 Energy:      -426.055759  Gnorm:      0.003822  CPU:   35.012
  Cycle:    564 Energy:      -426.055764  Gnorm:      0.003819  CPU:   35.064
  Cycle:    565 Energy:      -426.055771  Gnorm:      0.003815  CPU:   35.112
  Cycle:    566 Energy:      -426.055782  Gnorm:      0.003809  CPU:   35.168
  Cycle:    567 Energy:      -426.055846  Gnorm:      0.003811  CPU:   35.276
  Cycle:    568 Energy:      -426.055964  Gnorm:      0.004182  CPU:   35.364
  Cycle:    569 Energy:      -426.056032  Gnorm:      0.004664  CPU:   35.440
  Cycle:    570 Energy:      -426.056047  Gnorm:      0.007646  CPU:   35.492
  ** Hessian calculated **
  Cycle:    571 Energy:      -426.056051  Gnorm:      0.004580  CPU:   35.584
  Cycle:    572 Energy:      -426.056053  Gnorm:      0.003967  CPU:   35.636
  Cycle:    573 Energy:      -426.056054  Gnorm:      0.002765  CPU:   35.688
  Cycle:    574 Energy:      -426.056055  Gnorm:      0.002917  CPU:   35.740
  Cycle:    575 Energy:      -426.056057  Gnorm:      0.003219  CPU:   35.792
  Cycle:    576 Energy:      -426.056059  Gnorm:      0.003476  CPU:   35.844
  Cycle:    577 Energy:      -426.056063  Gnorm:      0.003143  CPU:   35.900
  Cycle:    578 Energy:      -426.056067  Gnorm:      0.003887  CPU:   35.952
  Cycle:    579 Energy:      -426.056072  Gnorm:      0.004819  CPU:   36.000
  Cycle:    580 Energy:      -426.056077  Gnorm:      0.006090  CPU:   36.052
  ** Hessian calculated **
  Cycle:    581 Energy:      -426.056080  Gnorm:      0.005583  CPU:   36.148
  Cycle:    582 Energy:      -426.056085  Gnorm:      0.004413  CPU:   36.200
  Cycle:    583 Energy:      -426.056088  Gnorm:      0.004076  CPU:   36.256
  Cycle:    584 Energy:      -426.056090  Gnorm:      0.003934  CPU:   36.308
  Cycle:    585 Energy:      -426.056092  Gnorm:      0.004000  CPU:   36.360
  Cycle:    586 Energy:      -426.056093  Gnorm:      0.003410  CPU:   36.412
  Cycle:    587 Energy:      -426.056095  Gnorm:      0.004232  CPU:   36.464
  Cycle:    588 Energy:      -426.056098  Gnorm:      0.003249  CPU:   36.516
  Cycle:    589 Energy:      -426.056102  Gnorm:      0.002998  CPU:   36.568
  Cycle:    590 Energy:      -426.056106  Gnorm:      0.003834  CPU:   36.620
  ** Hessian calculated **
  Cycle:    591 Energy:      -426.056114  Gnorm:      0.003829  CPU:   36.712
  Cycle:    592 Energy:      -426.056127  Gnorm:      0.003826  CPU:   36.772
  Cycle:    593 Energy:      -426.056200  Gnorm:      0.003920  CPU:   36.880
  Cycle:    594 Energy:      -426.056222  Gnorm:      0.003888  CPU:   36.932
  Cycle:    595 Energy:      -426.056349  Gnorm:      0.005480  CPU:   37.020
  Cycle:    596 Energy:      -426.056368  Gnorm:      0.005157  CPU:   37.072
  Cycle:    597 Energy:      -426.056485  Gnorm:      0.006863  CPU:   37.168
  ** Hessian calculated **
  Cycle:    598 Energy:      -426.056488  Gnorm:      0.003540  CPU:   37.264
  Cycle:    599 Energy:      -426.056489  Gnorm:      0.003168  CPU:   37.316
  Cycle:    600 Energy:      -426.056491  Gnorm:      0.003125  CPU:   37.368
  Cycle:    601 Energy:      -426.056492  Gnorm:      0.003078  CPU:   37.420
  Cycle:    602 Energy:      -426.056494  Gnorm:      0.002950  CPU:   37.472
  Cycle:    603 Energy:      -426.056495  Gnorm:      0.003723  CPU:   37.520
  Cycle:    604 Energy:      -426.056498  Gnorm:      0.003453  CPU:   37.568
  Cycle:    605 Energy:      -426.056500  Gnorm:      0.004500  CPU:   37.616
  Cycle:    606 Energy:      -426.056503  Gnorm:      0.004468  CPU:   37.668
  Cycle:    607 Energy:      -426.056507  Gnorm:      0.005144  CPU:   37.720
  ** Hessian calculated **
  Cycle:    608 Energy:      -426.056513  Gnorm:      0.005138  CPU:   37.812
[...]
    49      396.1424                  0.00000004136069
    50      396.9713                  0.00000004118815
    51      406.4378                  0.00000001542562
    52      406.8129                  0.00000001539719
    53      410.8291                  0.00000000000000
    54      419.8519                  0.00000000000000
    55      438.0467                  0.00000000000000
    56      457.1851                  0.00000000469018
    57      458.0826                  0.00000000467182
    58      460.3242                  0.00000000000000
    59      465.4144                  0.00000000237588
    60      465.9267                  0.00000000237066
    61      492.8650                  0.00000000000000
    62      498.0618                  0.00000000000000
    63      508.4655                  0.00000054271353
    64      509.3623                  0.00000054080431
    65      539.9450                  0.00000000081391
    66      541.7464                  0.00000000391291
    67      543.2849                  0.00000005096181
    68      544.3835                  0.00000164236697
    69      545.3732                  0.00000158890265
    70      550.1779                  0.00000000000000
    71      552.1191                  0.00000000000000
    72      577.6181                  0.00000000000000
    73      581.1671                  0.00000000000000
    74      585.3739                  0.00000000000000
    75      595.8528                  0.00000000000000
    76      625.2233                  0.00000000956206
    77      625.3547                  0.00000000955805
    78      627.5909                  0.00000022341796
    79      628.1509                  0.00000158657958
    80      629.5642                  0.00000135744450
    81      636.0953                  0.00000000000000
    82      642.8656                  0.00000000000000
    83      651.6034                  0.00000000000000
    84      653.8200                  0.00000005659413
    85      654.7021                  0.00000005918687
    86      655.4469                  0.00000008265460
    87      675.0308                  0.00000000000000
    88      697.7043                  0.00000000000000
    89      700.6753                  0.00000000000000
    90      707.4344                  0.00000000000000
    91      716.2888                  0.00000000000000
    92      720.9022                  0.00000000070230
    93      722.4953                  0.00000004217146
    94      723.7994                  0.00000065889064
    95      725.2137                  0.00000061516139
    96      732.0078                  0.00000000000000
    97      739.5742                  0.00000000000000
    98      744.8278                  0.00000000036692
    99      745.9790                  0.00000000036579
   100      756.1898                  0.00000000000000
   101      758.3453                  0.00000000594254
   102      758.6939                  0.00000000593708
   103      761.1014                  0.00000005795769
   104      762.7769                  0.00000018810285
   105      763.4529                  0.00000013016871
   106      770.8987                  0.00000000000000
   107      773.3890                  0.00000000000000
   108      777.9370                  0.00000000000000
   109      784.8079                  0.00000000000000
   110      794.6129                  0.00000000000000
   111      822.4554                  0.00000000473485
   112      822.8521                  0.00000000473028
   113      824.9564                  0.00000000000000
   114      827.5812                  0.00000007085444
   115      827.8385                  0.00000007081039
   116      830.0276                  0.00000000000000
   117      854.4824                  0.00000107749718
   118      854.9165                  0.00000107640341
   119      861.2778                  0.00000000000000
   120      877.3664                  0.00000000000000
   121      883.2777                  0.00000000000000
   122      889.9055                  0.00000000226253
   123      890.1031                  0.00000000226152
   124      896.7391                  0.00000000000000
   125      901.1044                  0.00000001928181
   126      902.2054                  0.00000002369986
   127      904.1158                  0.00000000444623
   128      906.7194                  0.00000004757507
   129      908.3904                  0.00000054483296
   130      908.8831                  0.00000025291983
   131      909.3215                  0.00000025414762
   132      910.8874                  0.00000000314512
   133      917.0133                  0.00000026576160
   134      918.7190                  0.00000026477569
   135      923.5102                  0.00000008694818
   136      923.7077                  0.00000008691100
   137      932.0107                  0.00000000000000
   138      966.9444                  0.00000000000000
   139      974.7858                  0.00000000000000
   140      979.8588                  0.00000000000000
   141      989.2299                  0.00000000000000
   142      994.3264                  0.00000000000000
   143     1005.8282                  0.00000000000000
   144     1009.0105                  0.00000810641074
   145     1009.3589                  0.00000806869845
   146     1009.8179                  0.00000867817087
   147     1022.2233                  0.00000000000000
   148     1024.6735                  0.00000000000000
   149     1033.2079                  0.00000032056143
   150     1033.2581                  0.00000142046106
   151     1034.6352                  0.00000402886771
   152     1035.5727                  0.00000140601253
   153     1035.8562                  0.00000217919939
   154     1039.0448                  0.00000127231358
   155     1039.5386                  0.00000127110508
   156     1048.2590                  0.00000000000000
   157     1067.2221                  0.00000000000000
   158     1075.9574                  0.00000021571855
   159     1076.3221                  0.00000001257638
   160     1077.2480                  0.00000020605448
   161     1089.6893                  0.00000000000000
   162     1125.1471                  0.00000000000000
   163     1128.6661                  0.00000077756291
   164     1129.5525                  0.00000198221506
   165     1130.2523                  0.00000182739077
   166     1133.6783                  0.00000000000000
   167     1152.1527                  0.00000000258916
   168     1153.8038                  0.00000000709472
   169     1155.6108                  0.00000000449886
   170     1158.7371                  0.00000000000000
   171     1161.3081                  0.00000000000000
   172     1169.4467                  0.00000000000000
   173     1172.2949                  0.00000000000000
   174     1207.2865                  0.00000000000000
   175     1232.9555                  0.00000000000000
   176     1256.1446                  0.00000000000000
   177     1260.7047                  0.00000000471526
   178     1261.5640                  0.00000000470884
   179     1264.8992                  0.00000501055173
   180     1265.8484                  0.00000500670207
   181     1265.9483                  0.00000003899392
   182     1269.6760                  0.00000017029948
   183     1271.1203                  0.00000016991269
   184     1279.4442                  0.00000000000000
   185     1282.6723                  0.00000000000000
   186     1285.6217                  0.00000000000000
   187     1293.9629                  0.00000000000000
   188     1308.1433                  0.00000000000000
   189     1314.5957                  0.00000000000000
   190     1325.1784                  0.00000000000000
   191     1329.9089                  0.00000007656858
   192     1330.5826                  0.00000007649107
   193     1337.6639                  0.00000000000000
   194     1344.3036                  0.00000000000000
   195     1349.2136                  0.00000000000000
   196     1352.8852                  0.00000000000000
   197     1357.2013                  0.00000000000000
   198     1360.5846                  0.00000263912172
   199     1362.1746                  0.00000263296451
   200     1366.4064                  0.00000000000000
   201     1382.0030                  0.00000000000000
   202     1384.0465                  0.00000001163726
   203     1384.4916                  0.00000002981454
   204     1386.0956                  0.00000062934166
   205     1387.5151                  0.00000167327914
   206     1388.4604                  0.00000106188280
   207     1391.7717                  0.00000000000000
   208     1393.9956                  0.00000000000000
   209     1400.2771                  0.00000000000000
   210     1414.3821                  0.00000000568514
   211     1416.0369                  0.00000000567186
   212     1418.4352                  0.00000000000000
   213     1426.6300                  0.00000012147649
   214     1426.9868                  0.00000012141576
   215     1429.2911                  0.00000009500897
   216     1430.3874                  0.00000009486338
   217     1432.9901                  0.00000013874153
   218     1434.4667                  0.00000053799883
   219     1436.2401                  0.00000039855670
   220     1445.2879                  0.00000000000000
   221     1449.4609                  0.00000000000000
   222     1452.2249                  0.00000147735278
   223     1452.6167                  0.00000153187045
   224     1452.9632                  0.00000198260983
   225     1453.0867                  0.00000107777196
   226     1453.4340                  0.00000050399311
   227     1455.9908                  0.00000090832552
   228     1457.0584                  0.00000095121313
   229     1457.9706                  0.00000000400620
   230     1458.1570                  0.00000004724189
   231     1469.2344                  0.00000016389296
   232     1469.9898                  0.00000016372455
   233     1473.8445                  0.00000000000000
   234     1478.3052                  0.00000000000000
   235     1489.4416                  0.00000000000000
   236     1494.4502                  0.00000000000000
   237     1496.5869                  0.00000006648999
   238     1497.4684                  0.00000015437126
   239     1498.3489                  0.00000020416553
   240     1513.3893                  0.00000000000000
   241     1542.6493                  0.00000000000000
   242     1546.4636                  0.00000000000000
   243     1555.3391                  0.00000000009320
   244     1555.6989                  0.00000000009315
   245     1561.7709                  0.00000000000000
   246     1587.4784                  0.00000000000000
   247     1635.5553                  0.00000000000000
   248     1642.5649                  0.00000000000000
   249     1697.8986                  0.00000000000000
   250     1702.6470                  0.00000000000000
   251     2868.6236                  0.00000000000000
   252     2908.0433                  0.00000000000000
   253     2911.3723                  0.00000000000000
   254     2915.1780                  0.00000000000000
   255     2971.4522                  0.00000000000000
   256     2974.3542                  0.00000000000000
   257     2976.7827                  0.00000046930219
   258     2977.0318                  0.00000060834442
   259     2977.8432                  0.00000014981753
   260     3061.0159                  0.00000300553643
   261     3061.7308                  0.00000392093032
   262     3062.2294                  0.00000388001857
   263     3062.7302                  0.00000390013999
   264     3063.3638                  0.00000362911865
--------------------------------------------------------------------------------
  Thermal conductivity =     0.000001 W/(m.K) 
--------------------------------------------------------------------------------

--------------------------------------------------------------------------------
  Phonon properties (per mole of unit cells): Temperature =    300.000 K
--------------------------------------------------------------------------------
  Zero point energy            =       16.159457 eV
  Entropy                      =        0.006152 eV/K
                               =      593.609185 J/(mol.K)
  Helmholtz free-energy        =     -410.772054 eV
                               =   -39633.220498 kJmol-1
  Free energy (equipartition)  =     -417.288860 eV
  - T*S       (equipartition)  =        2.125853 eV
  Uvib        (equipartition)  =        6.643966 eV
  Mean kinetic energy          =        8.656651 eV
  Heat capacity - const volume =        0.007337 eV/K
                               =      707.865789 J/(mol.K)
--------------------------------------------------------------------------------

  Phonon density of states : 

  Broadening factor =     0.0100

--------------------------------------------------------------------------------
 Frequency (cm-1) Density of States                                             
--------------------------------------------------------------------------------
    0.00000 |*************************                                     0.015
   50.17370 |****************************                                  0.017
  100.34741 |****************************                                  0.017
  150.52111 |******************************                                0.018
  200.69481 |*********************************                             0.020
  250.86852 |*************************************                         0.022
  301.04222 |****************************************                      0.024
  351.21593 |********************************************                  0.026
  401.38963 |*********************************************                 0.027
  451.56333 |*********************************************                 0.027
  501.73704 |********************************************                  0.026
  551.91074 |*********************************************                 0.027
  602.08444 |***********************************************               0.028
  652.25815 |*************************************************             0.029
  702.43185 |****************************************************          0.031
  752.60555 |******************************************************        0.032
  802.77926 |******************************************************        0.032
  852.95296 |******************************************************        0.032
  903.12667 |******************************************************        0.032
  953.30037 |*****************************************************         0.031
 1003.47407 |****************************************************          0.031
 1053.64778 |**************************************************            0.030
 1103.82148 |***********************************************               0.028
 1153.99518 |**********************************************                0.027
 1204.16889 |*********************************************                 0.027
 1254.34259 |************************************************              0.029
 1304.51629 |*****************************************************         0.031
 1354.69000 |*********************************************************     0.034
 1404.86370 |***********************************************************   0.035
 1455.03741 |*********************************************************     0.034
 1505.21111 |***********************************************               0.028
 1555.38481 |************************************                          0.021
 1605.55852 |**************************                                    0.016
 1655.73222 |********************                                          0.012
 1705.90592 |***************                                               0.009
 1756.07963 |***********                                                   0.007
 1806.25333 |********                                                      0.005
 1856.42703 |******                                                        0.004
 1906.60074 |*****                                                         0.003
 1956.77444 |****                                                          0.003
 2006.94815 |***                                                           0.002
 2057.12185 |***                                                           0.002
 2107.29555 |***                                                           0.002
 2157.46926 |**                                                            0.002
 2207.64296 |**                                                            0.002
 2257.81666 |**                                                            0.001
 2307.99037 |**                                                            0.001
 2358.16407 |**                                                            0.001
 2408.33777 |**                                                            0.001
 2458.51148 |**                                                            0.001
 2508.68518 |**                                                            0.001
 2558.85889 |**                                                            0.001
 2609.03259 |**                                                            0.001
 2659.20629 |**                                                            0.002
 2709.38000 |***                                                           0.002
 2759.55370 |****                                                          0.003
 2809.72740 |******                                                        0.004
 2859.90111 |********                                                      0.005
 2910.07481 |***********                                                   0.007
 2960.24851 |*************                                                 0.008
 3010.42222 |*************                                                 0.008
 3060.59592 |************                                                  0.007
 3110.76963 |*********                                                     0.005
 3160.94333 |******                                                        0.004
--------------------------------------------------------------------------------



  Time to end of optimisation =      64.6320 seconds


  Peak dynamic memory used =       2.31 MB 


  Timing analysis for GULP :

--------------------------------------------------------------------------------
  Task / Subroutine                                          Time (Seconds)
--------------------------------------------------------------------------------
  Calculation of real space energy and derivatives               34.1760
  Calculation of three-body energy and derivatives                6.2160
  Calculation of four-body energy and derivatives                 3.3480
  Calculation of Bond Order energy and derivatives                7.6480
  Calculation of molecules and connectivity                       8.3280
  Calculation of phonons                                          0.7960
  Calculation of scattering                                       0.0000
  Calculation of matrix inversion                                 2.9360
  Global summation overhead                                       0.0040
--------------------------------------------------------------------------------
  Total CPU time                                                 64.6320
--------------------------------------------------------------------------------


  LAMMPS file written on channel 26


  Job Finished at 21:26.46 29th July       2013                               

