LAMMPS (19 Feb 2013)
###########################################################################
#x0
###########################################################################
units 			metal
atom_style		full
read_data		fort.26.dihedral_correct
  3 = max bonds/atom
  7 = max angles/atom
  11 = max dihedrals/atom
  triclinic box = (0 0 0) to (100 100 100) with tilt (0 0 0)
  1 by 1 by 1 MPI processor grid
  88 atoms
  30 bonds
  59 angles
  43 dihedrals
  4 = max # of 1-2 neighbors
  7 = max # of 1-3 neighbors
  14 = max # of 1-4 neighbors
  16 = max # of special neighbors
group         		C type = 1
60 atoms in group C
###########################################################################
#OLPS
###########################################################################

################################################################################
#### Covalent bond parameters
################################################################################
bond_style harmonic
bond_coeff   1     20.337919      1.4000000
bond_coeff   2     20.337919      1.4000000
bond_coeff   3     13.746525      1.5100000
bond_coeff   4     15.914747      1.0800000
bond_coeff   5     11.621668      1.5290000
bond_coeff   6     11.621668      1.5290000
bond_coeff   7     13.746525      1.5100000
bond_coeff   8     13.746525      1.5100000
bond_coeff   9     13.876618      1.4100000
bond_coeff  10     14.743907      1.0900000
bond_coeff  11     14.743907      1.0900000
bond_coeff  12     22.549505      1.2290000
bond_coeff  13      9.279988      1.3270000
################################################################################
#### Covalent angle parameters
################################################################################
#angle_style harmonic
#angle_coeff 1 5.4639184       120.000
#angle_coeff 2 5.4639184       120.000
#angle_coeff 3 5.4639184       120.000
#angle_coeff 4 6.0710205       120.000
#angle_coeff 5 3.0355102       120.000
#angle_coeff 6 3.0355102       120.000
#angle_coeff 7 5.0606292       112.700
#angle_coeff 8 5.0606292       112.700
#angle_coeff 9 5.4639184       114.000
#angle_coeff 10 5.4639184       111.100
#angle_coeff 11 3.2523324       110.700
#angle_coeff 12 3.2523324       110.700
#angle_coeff 13 3.0355102       109.500
#angle_coeff 14 3.0355102       109.500
#angle_coeff 15 2.8620525       107.800
#angle_coeff 16 2.8620525       107.800
#angle_coeff 17 7.0250380       111.400
#angle_coeff 18 6.9383091       120.400
#angle_coeff 19 7.1984957       123.400
#angle_coeff 20 7.1984957       116.900

angle_style harmonic
angle_coeff 1                  5.4639184       120.000
angle_coeff 2                  5.4639184       120.000
angle_coeff 3                  5.4639184       120.000
angle_coeff 4                  6.0710205       120.000
angle_coeff 5                  3.0355102       120.000
angle_coeff 6                  3.0355102       120.000
angle_coeff 7                  5.0606292       112.700
angle_coeff 8                  5.0606292       112.700
angle_coeff 9                  5.4639184       114.000
angle_coeff 10                  5.4639184       114.000
angle_coeff 11                  5.4639184       111.100
angle_coeff 12                  3.2523324       110.700
angle_coeff 13                  3.2523324       110.700
angle_coeff 14                  3.0355102       109.500
angle_coeff 15                  3.0355102       109.500
angle_coeff 16                  2.8620525       107.800
angle_coeff 17                  2.8620525       107.800
angle_coeff 18                  5.4639184       111.100
angle_coeff 19                  3.4691546       109.500
angle_coeff 20                  7.0250380       111.400
angle_coeff 21                  6.9383091       120.400
angle_coeff 22                  7.1984957       123.400
angle_coeff 23                  7.1984957       116.900
angle_coeff 24                  6.0710205       120.000
################################################################################
#### Covalent torsion parameters
################################################################################
#dihedral_style opls
#dihedral_coeff   1 0.0 0.62878426 0.0 0.0
#dihedral_coeff   2 0.0 0.62878426 0.0 0.0
#dihedral_coeff   3 0.0 0.62878426 0.0 0.0
#dihedral_coeff   4 0.0 0.62878426 0.0 0.0
#dihedral_coeff   5 0.05637376 0.0 0.0 0.0
#dihedral_coeff   6 0.0 -0.00216822 0.0 0.0
#dihedral_coeff   7 0.0 0.0 0.00867288 0.0
#dihedral_coeff   8 0.0 0.0 0.01300932 0.0
#dihedral_coeff   9 0.0 0.0 0.01300932 0.0
#dihedral_coeff  10 0.0 0.0 0.01300932 0.0
#dihedral_coeff  11 -0.01201194 0.0 0.0 0.0
#dihedral_coeff  12 0.0 0.05325152 0.0 0.0
#dihedral_coeff  13 0.0 0.0 -0.03009492 0.0
#dihedral_coeff  14 0.0 -0.02398054 0.0 0.0
#dihedral_coeff  15 0.0 0.0057241 0.0 0.0
#dihedral_coeff  16 0.20246854 0.0 0.0 0.0
#dihedral_coeff  17 0.0 0.22219934 0.0 0.0
#dihedral_coeff  18 0.0 0.22219934 0.0 0.0
#dihedral_coeff  19 0.0 0.0 0.00858616 0.0

dihedral_style opls
#H1    c C2    c C2    c H1    c  0.3144     -   2     0.00  Bonded
dihedral_coeff   1 0.0 0.62878426 0.0 0.0

#H1    c C2    c C2    c C2    c  0.3144     -   2     0.00  Bonded
dihedral_coeff   2 0.62878426 0.0 0.0 0.0

#H1    c C2    c C2    c C3    c  0.3144     -   2     0.00  Bonded
dihedral_coeff   3 0.62878426 0.0 0.0 0.0

#H1    c C2    c C3    c C7    c  0.3144     -   2     0.00  Bonded
dihedral_coeff   4 0.0 0.62878426 0.0 0.0

#C7    c C5    c C5    c C5    c  0.2819E-01 +   1     0.00  Bonded
dihedral_coeff   5 0.05637376 0.0 0.0 0.0

#C7    c C5    c C5    c C5    c  -.1084E-02 -   2     0.00  Bonded
dihedral_coeff   6 0.00216822 0.0 0.0 0.0 #changed

#C7    c C5    c C5    c C5    c  0.4336E-02 +   3     0.00  Bonded
dihedral_coeff   7 0.00867288 0.0 0.0 0.0

#C5    c C5    c C5    c H2    c  0.6505E-02 +   3     0.00  Bonded
dihedral_coeff   8 0.0 0.0 0.01300932 0.0

#C7    c C5    c C5    c H2    c  0.6505E-02 +   3     0.00  Bonded
dihedral_coeff   9 0.01300932 0.0 0.0 0.0

#O1    c C4    c C5    c C5    c  -.6006E-02 +   1     0.00  Bonded
dihedral_coeff  10 -0.01201194 0.0 0.0 0.0

#O1    c C4    c C5    c C5    c  0.2663E-01 -   2     0.00  Bonded
dihedral_coeff  11 0.0 0.05325152 0.0 0.0

#O1    c C4    c C5    c C5    c  -.1505E-01 +   3     0.00  Bonded
dihedral_coeff  12 0.0 0.0 -0.03009492 0.0

#O2    c C4    c C5    c C5    c  -.1199E-01 -   2     0.00  Bonded
dihedral_coeff  13 0.02398054 0.0 0.0 0.0

#O2    c C4    c C5    c H2    c  0.2862E-02 -   2     0.00  Bonded
dihedral_coeff  14 0.0 -0.0057241 0.0 0.0

#C5    c C4    c O2    c C6    c  0.1012     +   1     0.00  Bonded
dihedral_coeff  15 0.20246854 0.0 0.0 0.0

#C5    c C4    c O2    c C6    c  0.1111     -   2     0.00  Bonded
dihedral_coeff  16 0.22219934 0.0 0.0 0.0

#O1    c C4    c O2    c C6    c  0.1111     -   2     0.00  Bonded
dihedral_coeff  17 0.0 0.22219934 0.0 0.0

#C4    c O2    c C6    c H2    c  0.4293E-02 +   3     0.00  Bonded
dihedral_coeff  18 0.0 0.0 0.00858616 0.0

#C4    c O2    c C6    c H2    c  0.4293E-02 +   3     0.00  Bonded
dihedral_coeff  19 0.00858616 0.0 0.0 0.0

#C4    c O2    c C6    c H2    c  0.4293E-02 +   3     0.00  Bonded
#dihedral_coeff  20 0.0 0.0 0.0 0.01301

#C1    c C1    c C7    c C3    c  0.3144     -   2     0.00  Bonded
#dihedral_coeff  21 0.0 0.62880000 0.0 0.0

#C1    c C7    c C5    c C5    c  0.2819E-01 +   1     0.00  Bonded
#C1    c C7    c C5    c C5    c  -.1084E-02 -   2     0.00  Bonded
#C1    c C7    c C5    c C5    c  0.4336E-02 +   3     0.00  Bonded
#C1    c C7    c C5    c H2    c  0.6505E-02 +   3     0.00  Bonded
#C1    c C1    c C7    c C3    c  0.3144     -   2     0.00  Bonded
#C1    c C1    c C7    c C5    c  0.3144     -   2     0.00  Bonded

################################################################################
#### Pair potentials
################################################################################
#pair_style hybrid/overlay tersoff lj/cut 12.0 coul/wolf 0.223 12.0


pair_style hybrid/overlay tersoff coul/wolf 0.223 12.0 #lj/cut 12.0
pair_coeff * * tersoff C.1.tersoff 1 NULL NULL NULL NULL NULL NULL NULL NULL NULL NULL
pair_coeff * * coul/wolf
#pair_coeff 1 1 lj/cut 0.0660000000 3.5000000000
#pair_coeff 2 2 lj/cut 0.0700000000 3.5500000000
#pair_coeff 3 3 lj/cut 0.0700000000 3.5500000000
#pair_coeff 4 4 lj/cut 0.2100000000 2.9600000000
#pair_coeff 5 5 lj/cut 0.1400000000 2.9000000000
#pair_coeff 6 6 lj/cut 0.0660000000 3.5000000000
#pair_coeff 7 7 lj/cut 0.1050000000 3.7500000000
#pair_coeff 8 8 lj/cut 0.0660000000 3.5000000000
#pair_coeff 9 9 lj/cut 0.0300000000 2.4200000000
#pair_coeff 10 10 lj/cut 0.0300000000 2.5000000000
#pair_modify mix geometric
special_bonds coul 0.0 0.0 0.0

#special_bonds lj 0.0 0.0  0.00000 coul 0.0 0.0  0.00000 angle yes dihedral yes
###########################################################################

###########################################################################
#run parameters
###########################################################################
variable   	dt 		equal 0.001
variable 	T_run 		equal 1
variable 	seed 		equal 11111

velocity 		all create ${T_run} ${seed} rot yes dist gaussian
velocity 		all create 1 ${seed} rot yes dist gaussian
velocity 		all create 1 11111 rot yes dist gaussian

#--------------------------------------------------------------------------
#nvtanneal
#--------------------------------------------------------------------------
#fix 		1 all nvt temp 100 100 10.0
fix 		1 all nve
dump		1 all xyz 10 dump.xyz
dump_modify 	1 sort id
compute 	myDis all msd
thermo_style  	custom step temp press etotal pe ke vol c_myDis[4]
thermo			10
timestep		${dt}
timestep		0.0010000000000000000208
#run			500000
run			10000
Memory usage per processor = 8.40165 Mbytes
Step Temp Press TotEng PotEng KinEng Volume myDis[4] 
       0            1     51.98743     -388.023   -388.03424  0.011245633      1000000            0 
      10    179.95198    29.438479   -388.03037   -390.05404    2.0236739      1000000 0.0013578637 
      20    237.28822   -6.2371051    -387.8102   -390.47866    2.6684562      1000000 0.0066127949 
      30    125.07391   -39.131245   -387.79998   -389.20652    1.4065353      1000000  0.010009138 
      40    142.52736    -48.02692   -387.80215   -389.40496    1.6028104      1000000  0.015091582 
      50     151.7912   -29.024788   -387.81279   -389.51978    1.7069881      1000000   0.01668716 
      60    162.82669    8.9114361   -387.81426   -389.64535    1.8310892      1000000  0.014181307 
      70    160.37292    37.231861   -387.82171   -389.62521     1.803495      1000000  0.014209793 
      80    150.04384    56.080317    -387.8265   -389.51384    1.6873379      1000000   0.01457583 
      90    191.45084    8.7455291   -387.84028   -389.99327    2.1529858      1000000  0.012216712 
     100    180.04515   -27.157072   -387.83775   -389.86247    2.0247216      1000000  0.015150497 
     110    124.78528   -46.484996   -387.83783   -389.24112    1.4032894      1000000  0.017410793 
     120     136.9854   -43.041843   -387.83617   -389.37666    1.5404874      1000000  0.016398432 
     130     149.3776   -4.6478052   -387.83625    -389.5161    1.6798457      1000000   0.01554588 
     140    145.69304     26.77225   -387.82899    -389.4674    1.6384104      1000000  0.011841725 
     150    143.73696    51.930275   -387.80751   -389.42392    1.6164131      1000000  0.012917475 
     160    121.14745    24.870896   -387.80444   -389.16682    1.3623797      1000000  0.016232868 
     170    191.79972    23.294279   -387.78497   -389.94187    2.1569092      1000000  0.019818918 
     180    145.91749   -30.006071   -387.78383   -389.42477    1.6409345      1000000  0.023424619 
     190    115.03353   -38.381877   -387.78214   -389.07576    1.2936248      1000000  0.028270613 
     200    195.74533   -23.384773   -387.78796   -389.98924      2.20128      1000000   0.02298192 
     210    191.58652    20.400422   -387.78399    -389.9385    2.1545117      1000000  0.019706082 
     220    150.93661     43.32322   -387.77939   -389.47677    1.6973777      1000000  0.019026011 
     230    183.77266    41.936842   -387.77778   -389.84442    2.0666398      1000000  0.018452761 
     240    177.83287    14.713443   -387.77281   -389.77265    1.9998432      1000000  0.019822562 
     250    135.67605   -22.284982   -387.76549   -389.29125    1.5257631      1000000  0.024397373 
     260    162.51601   -42.478638   -387.76972   -389.59732    1.8275953      1000000  0.028033371 
     270    150.45949   -40.620293    -387.7656   -389.45761    1.6920121      1000000  0.028464334 
     280    170.60293   -11.553525   -387.76718   -389.68571    1.9185379      1000000  0.030017307 
     290    153.29224    21.265191   -387.76491   -389.48878    1.7238682      1000000   0.03178874 
     300    116.84077    44.782815   -387.75849   -389.07244    1.3139484      1000000  0.034762267 
     310    175.37019    20.510508   -387.75778   -389.72993    1.9721487      1000000  0.036220549 
     320     201.6953   -6.4217951   -387.76064   -390.02883    2.2681913      1000000  0.038843521 
     330    127.33192   -11.246916   -387.74563   -389.17755     1.431928      1000000  0.044395114 
     340    149.04199   -36.722123   -387.73461   -389.41068    1.6760715      1000000  0.045023008 
     350    182.13262   -20.653865   -387.73596   -389.78416    2.0481966      1000000  0.046188857 
     360    158.66059    20.869489   -387.73954   -389.52378    1.7842387      1000000  0.052244546 
     370    148.70245    32.127767   -387.73973   -389.41198    1.6722531      1000000  0.056428476 
     380    171.71504    31.628696    -387.7428   -389.67385    1.9310443      1000000  0.063234353 
     390    180.89208    27.890953   -387.72371   -389.75796    2.0342458      1000000   0.07277352 
     400    168.20063   -17.720686   -387.72578    -389.6173    1.8915225      1000000  0.080956038 
     410    126.04951    -22.07246   -387.72594   -389.14345    1.4175065      1000000  0.093233092 
     420     149.2442   -24.395309   -387.72815   -389.40649    1.6783454      1000000   0.11333856 
     430    216.13662    2.3031226   -387.73559   -390.16618     2.430593      1000000    0.1197694 
     440    163.52735    25.794456    -387.7235   -389.56246    1.8389686      1000000   0.12543208 
     450    145.35221     39.84617     -387.717   -389.35157    1.6345776      1000000   0.14662765 
     460    184.00213    18.418044   -387.72661   -389.79583    2.0692204      1000000    0.1648077 
     470    184.29664   -16.910567   -387.72282   -389.79536    2.0725323      1000000   0.17358416 
     480    142.44569   -29.874755   -387.72487   -389.32676    1.6018919      1000000   0.19017377 
     490    201.69606   -36.147382   -387.73842   -390.00662    2.2681998      1000000   0.20537611 
     500    163.68366   -18.125457   -387.73214   -389.57287    1.8407264      1000000   0.22011493 
     510    170.80242    8.7827192   -387.72652    -389.6473    1.9207813      1000000   0.23245993 
     520    171.30781    31.217573   -387.73084    -389.6573    1.9264647      1000000   0.24971005 
     530    181.79133    16.907097   -387.72995   -389.77431    2.0443585      1000000   0.27393416 
     540    189.77782  -0.57884262   -387.73322   -389.86739    2.1341716      1000000   0.29717614 
     550    182.07945    -20.85041   -387.73532   -389.78292    2.0475986      1000000   0.31469132 
     560    162.69558   -19.962556   -387.72645   -389.55606    1.8296147      1000000   0.34155603 
     570    166.18399   -18.960815   -387.72856   -389.59741    1.8688441      1000000   0.37412212 
     580    203.40692    14.017831   -387.73545   -390.02289    2.2874395      1000000   0.40286513 
     590    167.91957    31.925534   -387.73142   -389.61978    1.8883618      1000000   0.43077773 
     600    186.65083    31.506136   -387.73686   -389.83586    2.0990067      1000000   0.47036057 
     610    193.86715    18.886215   -387.73754    -389.9177    2.1801587      1000000   0.50821436 
     620    166.22707   -11.952545   -387.71502   -389.58435    1.8693285      1000000   0.55670968 
     630    188.41356   -20.857512   -387.71462   -389.83345    2.1188297      1000000   0.59256384 
     640    183.47058   -24.796338     -387.718   -389.78125    2.0632428      1000000   0.63674665 
     650    170.45505   -11.504046    -387.7066   -389.62347    1.9168749      1000000   0.68033497 
     660    173.60881    19.272966   -387.70382   -389.65616    1.9523409      1000000   0.73437003 
     670    173.51303    28.888669   -387.70913   -389.66039    1.9512638      1000000   0.78534557 
     680    169.20891    14.070661   -387.70385   -389.60671    1.9028612      1000000   0.83575445 
     690    191.71855   -3.0231217   -387.70943   -389.86542    2.1559964      1000000   0.89186179 
     700    165.18315   -30.891449     -387.704   -389.56158     1.857589      1000000   0.94312368 
     710    156.42326   -34.527462   -387.70864   -389.46772    1.7590785      1000000   0.97353773 
     720    171.74835   -26.850666   -387.70647   -389.63789    1.9314188      1000000    1.0155236 
     730    176.31719   0.64920994   -387.71786   -389.70065    1.9827984      1000000    1.0424523 
     740    153.30994    22.938217   -387.71669   -389.44076    1.7240673      1000000    1.0514658 
     750    184.60371    36.562257   -387.70427   -389.78026    2.0759855      1000000    1.0710959 
     760    176.06168    19.161996   -387.69731   -389.67723     1.979925      1000000    1.1016299 
     770     177.5247   -8.0298283   -387.70601   -389.70238    1.9963776      1000000     1.113822 
     780    186.30729    -31.17787   -387.70796    -389.8031    2.0951434      1000000    1.1212657 
     790    159.05197   -26.255826   -387.70982   -389.49846      1.78864      1000000    1.1460466 
     800    198.12854   -1.4113325   -387.71419   -389.94227    2.2280807      1000000    1.1484246 
     810    200.91616     21.11974   -387.71433   -389.97376    2.2594293      1000000    1.1703236 
     820    187.90602     33.44268    -387.7152   -389.82832    2.1131221      1000000    1.1943032 
     830    191.42603    26.268314   -387.71104   -389.86375    2.1527068      1000000    1.2240082 
     840    206.98915    2.5983682   -387.71307   -390.04079    2.3277239      1000000    1.2691516 
     850    167.47399   -22.196634   -387.71256   -389.59591    1.8833509      1000000    1.3081416 
     860    162.40383   -39.715518   -387.71447    -389.5408    1.8263338      1000000    1.3419796 
     870    167.55629   -25.582671   -387.71472   -389.59899    1.8842765      1000000    1.3696609 
     880    183.91859    14.317994    -387.7196   -389.78788    2.0682809      1000000    1.3815468 
     890    194.98368    20.164369   -387.72948   -389.92219    2.1927149      1000000    1.3890798 
     900    177.36056    26.211193   -387.72423   -389.71876    1.9945317      1000000    1.3951058 
     910    147.82636    24.897684   -387.71665   -389.37905    1.6624009      1000000    1.4003287 
     920    205.21791   -10.005277   -387.72379   -390.03159    2.3078052      1000000    1.3876291 
     930    173.01557   -31.556883    -387.7266   -389.67227    1.9456695      1000000    1.3884173 
     940    162.99012   -24.699419   -387.72346   -389.55639     1.832927      1000000     1.392194 
     950     201.1752   -10.058988   -387.72912   -389.99146    2.2623424      1000000    1.4036282 
     960    205.70648    12.124219   -387.73071   -390.04401    2.3132995      1000000    1.4048079 
     970    192.83658    23.696917   -387.73161   -389.90018    2.1685693      1000000    1.4223779 
     980    191.83896    26.986509   -387.73525    -389.8926    2.1573505      1000000     1.436317 
     990    189.24774    7.9437884   -387.73081   -389.85902    2.1282105      1000000    1.4364662 
    1000    185.79978   -19.008943    -387.7303   -389.81974     2.089436      1000000    1.4310753 
    1010    190.35783   -28.516564   -387.73358   -389.87427    2.1406942      1000000    1.4305261 
    1020    149.98904   -18.950683   -387.72812   -389.41484    1.6867216      1000000    1.4255384 
    1030    192.29921    4.6898492   -387.73446   -389.89699    2.1625263      1000000     1.414385 
    1040    194.25725     17.02723   -387.73784   -389.92239    2.1845457      1000000    1.4153797 
    1050    171.82813    21.976251   -387.73478   -389.66709     1.932316      1000000    1.4382979 
    1060    161.35439    15.568689   -387.72356   -389.53809    1.8145322      1000000    1.4688416 
    1070    198.14048   -7.0779092   -387.72557   -389.95378     2.228215      1000000    1.4890274 
    1080    157.84768   -21.598186   -387.72108   -389.49617    1.7750971      1000000    1.4984536 
    1090    165.78086   -22.995013   -387.72449    -389.5888    1.8643106      1000000    1.5104472 
    1100    195.39336    -6.803806   -387.72865   -389.92597     2.197322      1000000    1.5384125 
    1110    191.78658    6.7322416   -387.72922   -389.88598    2.1567614      1000000    1.5712624 
    1120    186.30477    27.054173   -387.73013   -389.82525     2.095115      1000000    1.5926734 
    1130     164.3573    14.100813    -387.7378    -389.5861    1.8483018      1000000    1.5970039 
    1140    160.25931   -2.4639547   -387.73796   -389.54018    1.8022173      1000000     1.607961 
    1150     189.9587   -9.3082119   -387.74155   -389.87775    2.1362058      1000000    1.6082723 
    1160    176.74989   -23.104942   -387.73982   -389.72749    1.9876644      1000000    1.6224154 
    1170    157.17624    -13.10461   -387.73264   -389.50018    1.7675462      1000000     1.615023 
    1180    195.07017    6.5058036    -387.7366   -389.93028    2.1936875      1000000    1.6234349 
    1190    166.01911    18.371215   -387.73625   -389.60324    1.8669899      1000000    1.6449704 
    1200     156.8312    11.123678   -387.73453    -389.4982     1.763666      1000000    1.6443412 
    1210      174.755    17.947484   -387.74206   -389.70729    1.9652305      1000000    1.6642543 
    1220    192.04841    3.9925231   -387.74031   -389.90002    2.1597059      1000000    1.6817174 
    1230    173.34641   -19.721456   -387.73923   -389.68862      1.94939      1000000    1.7089231 
    1240    168.84563  -0.35054233   -387.73266   -389.63143     1.898776      1000000     1.715163 
    1250    167.65663   -1.0133392   -387.73906   -389.62446    1.8854049      1000000    1.7279969 
    1260    174.92406    9.4982302   -387.73634   -389.70347    1.9671318      1000000    1.7325534 
    1270    172.73104    6.7454327    -387.7414   -389.68387    1.9424698      1000000    1.7581697 
    1280     157.9466    15.935209   -387.73565   -389.51185    1.7762095      1000000    1.7796994 
    1290    193.71604    4.8635109   -387.74008   -389.91854    2.1784595      1000000    1.7928605 
    1300    185.55924   -12.695877   -387.73564   -389.82237     2.086731      1000000    1.8138069 
    1310    153.98461   -17.360238    -387.7389   -389.47055    1.7316544      1000000    1.8306242 
    1320    156.39622   -11.222371    -387.7375   -389.49627    1.7587744      1000000    1.8426769 
    1330     186.0199    12.194744   -387.73187   -389.82378    2.0919115      1000000    1.8359798 
    1340    165.31134    6.6448254   -387.72708   -389.58611    1.8590306      1000000    1.8562654 
    1350    146.71845    5.8932046   -387.72654   -389.37648    1.6499418      1000000    1.8846386 
    1360    179.36641    6.8753754   -387.72841    -389.7455    2.0170887      1000000    1.9231763 
    1370    182.92732   -3.4050149   -387.73131   -389.78845    2.0571334      1000000     1.944526 
    1380    171.60465   -15.422391   -387.73308   -389.66288    1.9298028      1000000    1.9741068 
    1390    177.64911   -7.6549034   -387.73294   -389.73072    1.9977766      1000000    1.9911815 
    1400     174.3605    4.6516707   -387.73341   -389.69421    1.9607941      1000000    2.0126757 
    1410    192.32189    13.879056   -387.71639   -389.87917    2.1627813      1000000      2.05993 
    1420    172.21816    8.2503864   -387.71779    -389.6545    1.9367021      1000000    2.0861322 
    1430    146.57406    7.0213087   -387.71812   -389.36644     1.648318      1000000    2.1046114 
    1440    194.35181   -1.6621973   -387.73426   -389.91987     2.185609      1000000    2.1287143 
    1450    187.97655   -15.115779   -387.72224   -389.83616    2.1139152      1000000    2.1549755 
    1460     164.2865   -5.3908409   -387.72186   -389.56936    1.8475057      1000000    2.1615483 
    1470    168.95493    1.0336339   -387.72091   -389.62091     1.900005      1000000    2.1568899 
    1480    192.41698    2.5297232   -387.71579   -389.87964    2.1638507      1000000    2.1950595 
    1490    187.30246    6.8700249   -387.71065   -389.81699    2.1063346      1000000     2.248224 
    1500    184.93383    4.2896513    -387.7128    -389.7925    2.0796979      1000000    2.2883267 
    1510    157.99478    2.3822631   -387.71905    -389.4958    1.7767513      1000000    2.3201593 
    1520    171.76257    2.8915929   -387.70378   -389.63536    1.9315787      1000000    2.3648985 
    1530    184.67054   -15.311326   -387.71495   -389.79168    2.0767371      1000000     2.413717 
    1540    155.21085   -11.308448   -387.71733   -389.46278    1.7454442      1000000    2.4514592 
    1550     180.4351    9.1838012   -387.72045   -389.74955    2.0291069      1000000    2.4621042 
    1560    196.98568    6.9867841   -387.71973   -389.93496    2.2152286      1000000    2.4953567 
    1570    176.77007    8.5435131   -387.72203   -389.70992    1.9878913      1000000    2.5607566 
    1580    161.33017    16.431661   -387.72308   -389.53734    1.8142598      1000000    2.6107412 
    1590    177.79811   0.92645689   -387.72266   -389.72211    1.9994522      1000000    2.6675145 
    1600    162.56908   -17.655807    -387.7182   -389.54639    1.8281922      1000000    2.7301656 
    1610    178.54053   -17.946264   -387.72607   -389.73387    2.0078012      1000000    2.7714608 
    1620    177.66592   -3.8572979   -387.72274    -389.7207    1.9979657      1000000    2.7961676 
    1630    196.09084     2.784675   -387.71929   -389.92445    2.2051656      1000000     2.814737 
    1640    162.64107    4.6266943    -387.7129    -389.5419    1.8290017      1000000    2.8226708 
    1650    158.65298    9.9699602   -387.71462   -389.49877    1.7841532      1000000    2.8374792 
    1660    151.77767    10.207902   -387.71769   -389.42453    1.7068359      1000000    2.8404743 
    1670    195.84658   -11.394363   -387.71975   -389.92217    2.2024187      1000000    2.8652687 
    1680    183.56822   -21.965367   -387.72095   -389.78529    2.0643408      1000000     2.887862 
    1690    157.25248   -15.387743   -387.71625   -389.48465    1.7684036      1000000    2.9257428 
    1700    174.30636   -2.1537557   -387.71357   -389.67375    1.9601852      1000000    2.9510789 
    1710    177.95547    16.882349   -387.72762   -389.72884    2.0012218      1000000    2.9614455 
    1720    150.11784    24.640466   -387.71848   -389.40665    1.6881701      1000000    2.9665274 
    1730    158.24225     13.10082   -387.72897    -389.5085    1.7795342      1000000    2.9242297 
    1740    196.49521    1.9962698   -387.72703   -389.93675    2.2097129      1000000    2.9309107 
    1750     166.3145    -13.09109   -387.72328   -389.59359    1.8703118      1000000     2.928039 
    1760    171.68043   -19.185682   -387.72595   -389.65661    1.9306551      1000000     2.903123 
    1770    153.92594   -6.2305544   -387.71545   -389.44644    1.7309946      1000000     2.899508 
    1780    164.59759   0.47676953    -387.7161   -389.56711     1.851004      1000000     2.915342 
    1790    161.28818     14.92814   -387.71767   -389.53146    1.8137876      1000000    2.9389601 
    1800    167.51535    17.779038   -387.72547   -389.60929    1.8838161      1000000    2.9400418 
    1810    169.84428    9.7701877   -387.72484   -389.63484    1.9100063      1000000    2.9583598 
    1820    198.28146  -0.81036594   -387.72995   -389.95975    2.2298005      1000000    2.9571654 
    1830    167.07171   -12.492202   -387.73023   -389.60906     1.878827      1000000    2.9763987 
    1840    164.77205   -18.757616   -387.73028   -389.58324     1.852966      1000000    2.9598861 
    1850     167.6278    -4.716547   -387.72769   -389.61277    1.8850807      1000000    2.9477815 
    1860     171.8351   -3.2602012   -387.72665   -389.65904    1.9323944      1000000    2.9520163 
    1870    163.39495    15.849018   -387.72746   -389.56494    1.8374796      1000000    2.9201659 
    1880    170.88043    20.503993   -387.72995   -389.65161    1.9216586      1000000     2.887097 
    1890    199.02725    13.379297   -387.73012   -389.96831    2.2381873      1000000    2.8644077 
    1900    195.37712   -7.1050593   -387.73002   -389.92716    2.1971393      1000000    2.8433704 
    1910    178.79383   -10.932099   -387.72936   -389.74001    2.0106497      1000000    2.8181379 
    1920    154.77076   -10.185137   -387.72794   -389.46843    1.7404951      1000000    2.8003368 
    1930    184.45651   -3.2682218     -387.728   -389.80233    2.0743301      1000000    2.7866257 
    1940    186.84701    3.6792572    -387.7308   -389.83201    2.1012129      1000000    2.7665224 
    1950    165.33161    23.967701   -387.72769   -389.58695    1.8592586      1000000    2.7922878 
    1960    168.26774    18.249139   -387.73248   -389.62476    1.8922771      1000000    2.8088753 
    1970    198.84515    7.1028911   -387.73415   -389.97029    2.2361395      1000000    2.8288317 
    1980    174.08696   -16.862823   -387.72981   -389.68752     1.957718      1000000    2.8657229 
    1990    159.68048   -20.301625   -387.73117   -389.52688     1.795708      1000000    2.8636839 
    2000    184.19517   -17.723722   -387.73497   -389.80636    2.0713912      1000000    2.8766603 
    2010    177.43221  -0.92785764    -387.7272   -389.72254    1.9953375      1000000    2.8725242 
    2020     182.8241    3.4770138   -387.72904   -389.78501    2.0559726      1000000    2.8583281 
    2030    169.86058    9.5573164   -387.73014   -389.64033    1.9101897      1000000     2.853206 
    2040    176.20403    10.398102   -387.73151   -389.71304    1.9815258      1000000    2.8366032 
    2050    181.65018   -8.1708392   -387.73298   -389.77575    2.0427712      1000000    2.8290379 
    2060    168.94458   -21.413183   -387.72937   -389.62926    1.8998887      1000000    2.8117719 
    2070    155.47978   -14.025797   -387.73129   -389.47976    1.7484685      1000000    2.7931097 
    2080    178.28449   -14.318573   -387.73294   -389.73786    2.0049219      1000000    2.7684089 
    2090    169.57433    2.4249962   -387.74372   -389.65069    1.9069706      1000000    2.7552528 
    2100    183.66076    17.485684    -387.7172   -389.78259    2.0653814      1000000    2.7048635 
    2110    173.87236     13.13086   -387.72521   -389.68052    1.9553046      1000000     2.653244 
    2120    174.20196    9.8651649   -387.72446   -389.68348    1.9590112      1000000    2.6266458 
    2130    158.61793    6.9190278   -387.71652   -389.50028    1.7837589      1000000     2.555928 
    2140    152.52661   -10.606629   -387.71769   -389.43295    1.7152582      1000000    2.5395537 
    2150    166.90261   -10.483284   -387.71788   -389.59481    1.8769255      1000000    2.5269072 
    2160    199.18028   -4.6337844   -387.72612   -389.96603    2.2399082      1000000    2.5045741 
    2170    180.95317    18.385693   -387.72214   -389.75707    2.0349329      1000000    2.4945199 
    2180    145.33908    9.2402672   -387.72201   -389.35644    1.6344299      1000000     2.507939 
    2190    176.22893    4.9107042   -387.71812   -389.69992    1.9818058      1000000    2.4825485 
    2200    183.82517   -2.4111253   -387.72041   -389.78764    2.0672303      1000000    2.4776231 
    2210    152.49996   -16.949558   -387.71221   -389.42717    1.7149585      1000000    2.4775827 
    2220    164.66788   -18.325075   -387.71847   -389.57026    1.8517945      1000000    2.4407274 
    2230      181.757   -8.8095349   -387.71856   -389.76253    2.0439725      1000000    2.4368438 
    2240    172.40082    2.9091625    -387.7163   -389.65505    1.9387562      1000000    2.4280229 
    2250    164.94991     8.843039   -387.72225   -389.57722    1.8549661      1000000    2.4184324 
    2260    172.14736    14.850243   -387.73431   -389.67021     1.935906      1000000    2.4116088 
    2270    184.53014    14.765345   -387.72651   -389.80166    2.0751581      1000000    2.3684691 
    2280     185.5872   -9.1323961   -387.72679   -389.81384    2.0870455      1000000     2.333119 
    2290    158.31715   -11.082593   -387.72003    -389.5004    1.7803765      1000000    2.3140548 
    2300    169.44028   -5.9322249   -387.72705   -389.63251    1.9054631      1000000    2.3037794 
    2310    198.04535    8.2457759   -387.72452   -389.95167    2.2271453      1000000    2.2922321 
    2320    175.54949    10.013171   -387.72054    -389.6947    1.9741651      1000000    2.2833052 
    2330    165.49583    16.119062   -387.71833   -389.57944    1.8611053      1000000      2.27792 
    2340    186.15339    3.8247145   -387.71717   -389.81058    2.0934126      1000000    2.2604933 
    2350    162.47589   -9.6640372   -387.71389   -389.54103    1.8271441      1000000    2.2730889 
    2360    156.25459   -13.163418   -387.71598   -389.47316    1.7571817      1000000    2.2405956 
    2370     173.8176    -16.09402     -387.717   -389.67169    1.9546889      1000000    2.2148525 
    2380    175.72678    1.6773196   -387.71634   -389.69249    1.9761588      1000000    2.1845027 
    2390    177.10246    9.8873176   -387.71183   -389.70346    1.9916292      1000000     2.145052 
    2400    178.16393    14.585399   -387.71024    -389.7138    2.0035661      1000000    2.1355598 
    2410     141.5737    10.768626   -387.70215   -389.29424    1.5920858      1000000     2.122722 
    2420    165.96428  -0.96748434   -387.70549   -389.57186    1.8663734      1000000    2.1180225 
    2430    168.26252   -10.957921   -387.70101   -389.59323    1.8922185      1000000    2.0999483 
    2440    145.16831   -3.3298254   -387.69389    -389.3264    1.6325094      1000000      2.07571 
    2450     184.1829   -14.364833   -387.70044   -389.77169    2.0712532      1000000    2.0473741 
    2460    185.79986    2.3811211   -387.70707   -389.79651     2.089437      1000000    2.0246902 
    2470    158.04763     13.39114    -387.7134   -389.49074    1.7773456      1000000    2.0218035 
    2480    162.37713    21.581998   -387.71552   -389.54156    1.8260335      1000000    2.0018377 
    2490    162.18103    15.476638   -387.71005   -389.53387    1.8238283      1000000    2.0145497 
    2500    164.86697   -2.5200323   -387.71517    -389.5692    1.8540333      1000000    2.0268357 
    2510     197.0566   -12.510253   -387.71874   -389.93476    2.2160261      1000000    2.0294317 
    2520    166.59997   -14.937882   -387.70623   -389.57975     1.873522      1000000    2.0227501 
    2530    167.96293   -9.3040187   -387.70829   -389.59714    1.8888494      1000000     2.012471 
    2540    173.22429    1.6865237   -387.70879    -389.6568    1.9480168      1000000    2.0055594 
    2550    158.63785    14.026225    -387.7048   -389.48878    1.7839829      1000000    1.9949117 
    2560    180.13048    16.981313   -387.71237   -389.73805    2.0256812      1000000    1.9937333 
    2570    200.10609     5.278343   -387.70529   -389.95561    2.2503196      1000000    2.0125935 
    2580    175.25543   -9.0380092    -387.7071   -389.67796    1.9708582      1000000    2.0161561 
    2590      160.277    -13.40335   -387.70574   -389.50816    1.8024162      1000000    2.0073655 
    2600    172.06827   -18.470967   -387.70129   -389.63631    1.9350165      1000000    2.0036934 
    2610     182.3415   -3.2808989   -387.70316   -389.75371    2.0505455      1000000    2.0192901 
    2620     182.5196    22.177769   -387.71608   -389.76863    2.0525483      1000000    2.0150971 
    2630    179.92872    27.651716   -387.70034   -389.72376    2.0234123      1000000    2.0120714 
    2640    179.08916    9.9892489   -387.70373    -389.7177    2.0139709      1000000    1.9820164 
    2650    184.49775  -0.21848329    -387.6988    -389.7736    2.0747939      1000000    1.9584173 
    2660    174.28123   -18.450685   -387.69335   -389.65325    1.9599027      1000000    1.9762496 
    2670    153.16445   -18.523797   -387.69113   -389.41357    1.7224311      1000000    1.9796545 
    2680    195.75176   -4.1675286   -387.69491   -389.89626    2.2013524      1000000    1.9737432 
    2690     173.6222    11.743643   -387.69378   -389.64627    1.9524914      1000000    1.9756164 
    2700    153.63513    21.217111   -387.68932   -389.41704    1.7277242      1000000    1.9753429 
    2710    172.65098     19.14017   -387.69153    -389.6331    1.9415695      1000000    1.9823539 
    2720     181.9643    4.5742436   -387.69084   -389.73715    2.0463036      1000000    1.9902145 
    2730    174.23672    -12.86668   -387.69211   -389.65151    1.9594021      1000000     1.998801 
    2740    163.95928   -22.643489   -387.69385   -389.53768    1.8438259      1000000    2.0212944 
    2750    178.72973   -14.796838   -387.69181   -389.70174    2.0099289      1000000    2.0441921 
    2760    159.87972   -10.443857   -387.69184   -389.48979    1.7979486      1000000     2.033727 
    2770       155.32    10.688981   -387.69805   -389.44472    1.7466717      1000000    2.0155282 
    2780     149.0639    16.388552   -387.68958    -389.3659    1.6763179      1000000    2.0238783 
    2790    176.12287     6.562011     -387.695   -389.67562    1.9806131      1000000    2.0166481 
    2800    193.96413   -6.7253057   -387.69784   -389.87909    2.1812494      1000000    1.9862859 
    2810    162.06631   -14.436478   -387.69479   -389.51733    1.8225382      1000000    1.9506822 
    2820    139.46492   -20.029771   -387.68955   -389.25792    1.5683712      1000000    1.9455203 
    2830    197.22629   -8.7027339    -387.6932   -389.91114    2.2179344      1000000    1.9408257 
    2840    167.49655    5.1023107   -387.69256   -389.57616    1.8836047      1000000    1.9454866 
    2850    152.15962    19.375853   -387.69175   -389.40288    1.7111311      1000000    1.9229574 
    2860    164.53518     18.97382   -387.69419   -389.54449    1.8503022      1000000    1.9200192 
    2870    175.92487    8.4112431   -387.69458   -389.67296    1.9783864      1000000    1.9209888 
    2880    164.66889   -12.752153   -387.68924   -389.54104    1.8518058      1000000    1.9316608 
    2890    152.97451   -23.290202   -387.69126   -389.41156    1.7202952      1000000    1.9269066 
    2900    176.32493   -10.234945   -387.69665   -389.67954    1.9828854      1000000    1.8976787 
    2910    172.86752    5.6551693    -387.6943    -389.6383    1.9440046      1000000    1.8800111 
    2920    181.43788    16.133836   -387.69477   -389.73516    2.0403838      1000000    1.8952868 
    2930    171.20926    18.015044    -387.6892   -389.61456    1.9253564      1000000    1.9021412 
    2940    181.94086    11.584042   -387.68993   -389.73597    2.0460401      1000000    1.9211159 
    2950    180.97482   -4.7065876   -387.69224   -389.72742    2.0351763      1000000    1.9461999 
    2960    165.78064   -28.761405   -387.68997   -389.55428    1.8643082      1000000    1.9569745 
    2970    171.77509   -34.294435   -387.69122   -389.62294    1.9317196      1000000    1.9378581 
    2980    193.76755   -11.499765   -387.69316    -389.8722    2.1790387      1000000    1.9342498 
    2990    170.92587    11.874874   -387.69954   -389.62171    1.9221695      1000000    1.9182971 
    3000    165.11081    20.842629   -387.70868   -389.56545    1.8567755      1000000    1.9193997 
    3010    171.95214    27.267688   -387.70858   -389.64229    1.9337106      1000000     1.905834 
    3020    184.67509    11.591115   -387.70781    -389.7846    2.0767882      1000000    1.8864632 
    3030    182.28631   -15.400402   -387.69977   -389.74969    2.0499248      1000000    1.8926128 
    3040    170.00717   -22.637879   -387.69601   -389.60785    1.9118382      1000000    1.8819109 
    3050    181.32117   -18.712557   -387.69874   -389.73781    2.0390713      1000000    1.8730687 
    3060    195.53214    1.7025554   -387.70406   -389.90294    2.1988827      1000000    1.8867945 
    3070    163.60021    15.729979   -387.70018   -389.53996    1.8397878      1000000    1.9163096 
    3080    150.52748    23.422055   -387.70338   -389.39616    1.6927767      1000000    1.9228395 
    3090    180.72509    18.160842   -387.70741   -389.73978     2.032368      1000000     1.927641 
    3100    184.74902   -8.0677514   -387.71268    -389.7903    2.0776196      1000000    1.9444391 
    3110    152.99968   -19.233049   -387.70582    -389.4264    1.7205782      1000000    1.9276486 
    3120    169.87805   -18.200427   -387.70046   -389.61085    1.9103861      1000000    1.9043164 
    3130     184.8778   -2.3391663   -387.69639   -389.77546    2.0790678      1000000    1.9016288 
    3140     157.2566    5.0321981   -387.69283   -389.46128      1.76845      1000000    1.8909396 
    3150    168.75811    19.576836   -387.68964   -389.58743    1.8977917      1000000    1.9069832 
    3160    186.66058    23.154461   -387.69041   -389.78953    2.0991163      1000000     1.899528 
    3170    186.33545    7.8747873   -387.69383   -389.78929      2.09546      1000000    1.9160935 
    3180    172.06198    -15.42205   -387.69228   -389.62723    1.9349459      1000000    1.9261896 
    3190    149.49811   -23.880807   -387.69108   -389.37228    1.6812008      1000000    1.9213086 
    3200    185.38751   -18.049913   -387.69591   -389.78071    2.0847998      1000000    1.9124816 
    3210    198.67249   -4.8059316   -387.69553   -389.92972    2.2341979      1000000    1.8888826 
    3220    162.48106    12.226428   -387.69152   -389.51873    1.8272024      1000000    1.8502847 
    3230    178.57858     24.26511   -387.69166   -389.69989    2.0082291      1000000    1.8360786 
    3240    178.56417    13.751707   -387.69096   -389.69903    2.0080671      1000000     1.822459 
    3250    169.60928   -3.6398329   -387.69172   -389.59909    1.9073636      1000000    1.8231366 
    3260    165.23122   -20.409077   -387.69278   -389.55091    1.8581296      1000000    1.8217378 
    3270     190.4394   -23.786057   -387.69231   -389.83392    2.1416115      1000000    1.8486245 
    3280    183.88776   -16.082317   -387.69074   -389.75868    2.0679342      1000000    1.8331913 
    3290    172.07309    6.3646872   -387.68521   -389.62029    1.9350708      1000000     1.838493 
    3300    179.67315    22.741472   -387.68337   -389.70391    2.0205383      1000000    1.8132386 
    3310    188.10196    11.110977   -387.68029   -389.79561    2.1153255      1000000    1.8288447 
    3320    199.95366    5.3263016   -387.67772   -389.92633    2.2486054      1000000     1.844426 
    3330    178.27743   -6.0017397   -387.67886    -389.6837    2.0048425      1000000     1.822561 
    3340     180.7005   -15.943435   -387.67565   -389.70774    2.0320914      1000000    1.8196082 
    3350    191.22774   -12.044749   -387.67976   -389.83024    2.1504769      1000000    1.8084844 
    3360    181.36447    7.0701311   -387.68563   -389.72519    2.0395582      1000000    1.8043516 
    3370    141.96243    17.953233   -387.67351   -389.26996    1.5964574      1000000    1.7796127 
    3380    174.17981    13.195863   -387.67343   -389.63219    1.9587622      1000000    1.7840515 
    3390    188.88448   0.55404665   -387.66638    -389.7905    2.1241255      1000000    1.7714833 
    3400    164.51264     -10.4989   -387.66254   -389.51259    1.8500488      1000000    1.7761408 
    3410    150.78562   -12.821975   -387.65967   -389.35535    1.6956797      1000000    1.7899891 
    3420    156.67047   -10.990424   -387.66182   -389.42368    1.7618586      1000000    1.7779352 
    3430    203.71706   -5.7552404   -387.66775   -389.95867    2.2909272      1000000    1.7750318 
    3440    177.92819    10.618039   -387.66893   -389.66985    2.0009151      1000000    1.7782751 
    3450    167.28277     11.41812   -387.66209   -389.54329    1.8812005      1000000    1.7543051 
    3460    174.47114    15.469852   -387.67312   -389.63516    1.9620383      1000000    1.7466737 
    3470    186.57064    2.5807762   -387.66025   -389.75836    2.0981049      1000000    1.7322515 
    3480    138.64266   -17.345155   -387.65585   -389.21497    1.5591245      1000000    1.7283833 
    3490    174.65747    -18.21754   -387.65646    -389.6206    1.9641337      1000000    1.6994265 
    3500     191.5744    -7.295969   -387.65493   -389.80931    2.1543753      1000000    1.6875647 
    3510    179.31451    6.2852715   -387.65557   -389.67208    2.0165051      1000000    1.6948674 
    3520    161.25185    8.6796399   -387.64978   -389.46316    1.8133791      1000000    1.7217893 
    3530    184.39987    10.794856   -387.65206   -389.72575    2.0736932      1000000    1.7165167 
    3540    181.06322    8.9345331   -387.64786   -389.68403    2.0361704      1000000    1.7077135 
    3550    155.89166   -14.726545   -387.64542   -389.39852    1.7531004      1000000    1.7281213 
    3560    181.60427   -16.995006   -387.65441   -389.69666    2.0422549      1000000     1.721741 
    3570    176.63194   -10.233207   -387.64287    -389.6292    1.9863379      1000000     1.695498 
    3580    181.63887    8.8610598    -387.6455   -389.68814     2.042644      1000000    1.6796686 
    3590    167.45935    15.362353   -387.64327   -389.52646    1.8831863      1000000    1.6805496 
    3600    162.44221    16.590241   -387.63788   -389.46465    1.8267654      1000000    1.6968388 
    3610     186.6357    8.7993293   -387.63816   -389.73699    2.0988365      1000000    1.6900124 
    3620    180.62645   -11.029801   -387.64124   -389.67249    2.0312587      1000000    1.6967761 
    3630     169.3325   -14.780732    -387.6473   -389.55155     1.904251      1000000    1.7126715 
    3640    179.16459   -4.9307642   -387.65165   -389.66647    2.0148191      1000000    1.7254611 
    3650    179.75624   -2.8622962   -387.65404   -389.67552    2.0214727      1000000    1.6969154 
    3660    165.77951    6.0857885    -387.6509    -389.5152    1.8642954      1000000    1.6841796 
    3670    189.91724    16.273159   -387.63904   -389.77478    2.1357395      1000000    1.6785007 
    3680    181.65951    15.128968   -387.63844   -389.68132    2.0428762      1000000    1.6707979 
    3690    188.61385   -5.0352047   -387.63241   -389.75349     2.121082      1000000    1.6758325 
    3700    170.24705   -23.507461   -387.62971   -389.54424    1.9145357      1000000    1.6609538 
    3710    181.14614   -21.432481   -387.63123   -389.66833     2.037103      1000000    1.6602358 
    3720    186.54037   -17.621255   -387.63508   -389.73285    2.0977645      1000000     1.676949 
    3730    194.65213   -1.3221422   -387.63368   -389.82267    2.1889864      1000000    1.6779519 
    3740    154.53602    18.268415    -387.6359   -389.37376    1.7378553      1000000    1.6559501 
    3750    177.60018    25.280602   -387.63414   -389.63137    1.9972264      1000000    1.6875834 
    3760    201.25399    11.250782   -387.63713   -389.90036    2.2632284      1000000    1.7019584 
    3770    198.57017   -10.283405   -387.63827   -389.87132    2.2330472      1000000    1.7237081 
    3780    164.37101   -14.382622   -387.63145   -389.47991     1.848456      1000000     1.735092 
    3790    185.71849   -20.179464   -387.63238    -389.7209    2.0885219      1000000    1.7328346 
    3800    197.45234   -8.5985441    -387.6304   -389.85087    2.2204765      1000000    1.7473576 
    3810     173.2672    10.435234   -387.62636   -389.57486    1.9484993      1000000    1.7649418 
    3820    160.41702    15.786419   -387.62543   -389.42942    1.8039909      1000000    1.7586016 
    3830    179.22794    14.705991   -387.62684   -389.64237    2.0155315      1000000    1.7708324 
    3840    182.39778    4.0872811    -387.6286   -389.67978    2.0511785      1000000    1.8118642 
    3850     167.8122   -4.8393092   -387.62612   -389.51328    1.8871543      1000000      1.83847 
    3860    163.57159   -17.670389   -387.62873    -389.4682     1.839466      1000000    1.8681396 
    3870    163.85041   -17.439877   -387.62274   -389.46534    1.8426015      1000000    1.8963099 
    3880    182.49637  -0.57227633   -387.62547   -389.67776    2.0522872      1000000    1.9115793 
    3890    161.98814    10.447199   -387.62607   -389.44773    1.8216591      1000000    1.9217802 
    3900    179.46489    13.226665   -387.62624   -389.64443    2.0181962      1000000    1.9199233 
    3910    190.84295     8.155984   -387.62963   -389.77578    2.1461497      1000000    1.9182963 
    3920    188.46069   -3.2876074   -387.63107   -389.75043    2.1193597      1000000    1.9382609 
    3930     175.2323   -16.616076   -387.62628   -389.59688    1.9705981      1000000    1.9423455 
    3940    188.23382   -12.519813   -387.63142   -389.74823    2.1168084      1000000    1.9592584 
    3950    177.53488   -7.3770249   -387.63431    -389.6308    1.9964921      1000000    1.9811589 
    3960    180.42685    2.9117992   -387.62798   -389.65699    2.0290141      1000000    1.9923712 
    3970    173.34397    17.999209   -387.62649   -389.57585    1.9493626      1000000    2.0200786 
    3980    196.17894    15.313815    -387.6221   -389.82825    2.2061563      1000000    2.0329329 
    3990     196.1966    2.0817459   -387.62947   -389.83583    2.2063548      1000000    2.0482825 
    4000    159.70525    -11.14569   -387.62543   -389.42142    1.7959865      1000000    2.0641564 
    4010    148.99796     -13.5147    -387.6089   -389.28448    1.6755764      1000000     2.083721 
    4020    166.63498   -4.3750462   -387.60956   -389.48348    1.8739157      1000000    2.0998439 
    4030    194.19373   -1.8311997   -387.60919   -389.79302    2.1838313      1000000     2.121836 
    4040    171.19924    4.2487674   -387.60868   -389.53392    1.9252437      1000000    2.1652757 
    4050    185.52418     13.95509   -387.61402   -389.70036    2.0863367      1000000    2.1809626 
    4060    181.32178    10.298401   -387.60312    -389.6422    2.0390781      1000000    2.2093692 
    4070    174.96151   -10.921819   -387.60255   -389.57011    1.9675529      1000000    2.2401386 
    4080    165.31043   0.79903866    -387.6004   -389.45942    1.8590203      1000000    2.2643714 
    4090     195.9645   -4.9158356   -387.60104   -389.80478    2.2037448      1000000    2.2713859 
    4100    176.62865    -4.667739   -387.60113   -389.58744    1.9863009      1000000    2.3033431 
    4110    192.31831  -0.11050608   -387.60046    -389.7632     2.162741      1000000      2.31912 
    4120    148.96886    12.735004   -387.59835    -389.2736    1.6752491      1000000    2.3416887 
    4130    184.87381    13.553657   -387.59399   -389.67302     2.079023      1000000    2.3967536 
    4140    178.81334   -9.5246966   -387.59629   -389.60716    2.0108691      1000000    2.4070779 
    4150    176.26754   -2.9334844   -387.60354   -389.58578      1.98224      1000000    2.3921888 
    4160    194.04085   -11.841318   -387.60004   -389.78215    2.1821121      1000000    2.4099013 
    4170    176.46729   -4.2905395   -387.59818   -389.58267    1.9844864      1000000    2.4181544 
    4180    193.50611    9.7486361    -387.5904    -389.7665    2.1760986      1000000    2.3870369 
    4190    157.52978    12.497961   -387.59055   -389.36207     1.771522      1000000    2.3784995 
    4200    181.94042    5.8859758   -387.59274   -389.63878    2.0460351      1000000    2.4012282 
    4210    184.09514    8.9678051   -387.59073     -389.661    2.0702663      1000000    2.4391017 
    4220    181.82295  -0.39870587   -387.59003   -389.63475    2.0447141      1000000    2.4631529 
    4230    162.55178   -13.016827   -387.58586   -389.41386    1.8279977      1000000    2.4945256 
    4240     180.0062   -14.702218   -387.58778   -389.61207    2.0242835      1000000    2.5241646 
    4250    185.65603  -0.69033816   -387.59162   -389.67944    2.0878195      1000000    2.5324923 
    4260    194.85223    8.7030673   -387.58774   -389.77897    2.1912366      1000000    2.5636447 
    4270    173.42867    9.6539244   -387.59623   -389.54654    1.9503151      1000000    2.5692592 
    4280    178.70279   0.60136386   -387.59163   -389.60125    2.0096259      1000000    2.5913124 
    4290    196.91094   -2.3753837   -387.58636   -389.80074    2.2143881      1000000    2.6048621 
    4300    175.89165   -9.2668385   -387.58228    -389.5603    1.9780129      1000000    2.6432158 
    4310    168.14472    -9.094082   -387.57745   -389.46835    1.8908937      1000000    2.6522252 
    4320    169.98315    4.6724501   -387.57855   -389.49012     1.911568      1000000    2.6455833 
    4330    187.05104    11.077092   -387.58331   -389.68682    2.1035073      1000000    2.6664298 
    4340     168.5219     12.68171    -387.5829   -389.47803    1.8951354      1000000    2.6919354 
    4350    190.30558    7.1192255   -387.58339    -389.7235    2.1401066      1000000    2.7213753 
    4360    168.30845    8.8946869   -387.58023   -389.47296     1.892735      1000000    2.7367656 
    4370    179.20873   -10.127812   -387.58231   -389.59762    2.0153155      1000000    2.7475948 
    4380    163.89315   -14.116987   -387.57945   -389.42253    1.8430822      1000000    2.7722098 
    4390    173.86518   -7.3696476   -387.57467   -389.52989    1.9552239      1000000    2.7761028 
    4400    180.48244   -4.2462441   -387.57355   -389.60319    2.0296392      1000000    2.7712317 
    4410    178.20453    3.0744667   -387.57443   -389.57845    2.0040227      1000000    2.7629086 
    4420    174.06773    5.3375676   -387.58026   -389.53777    1.9575017      1000000    2.7858219 
    4430    189.25939    16.849308   -387.58716    -389.7155    2.1283415      1000000    2.8182264 
    4440    185.36643    10.449964   -387.58169   -389.66626    2.0845628      1000000    2.8155468 
    4450    177.13016   -8.4411394    -387.5753   -389.56724    1.9919407      1000000    2.8307104 
    4460    153.48489   -10.294426   -387.57029   -389.29633    1.7260347      1000000    2.8481852 
    4470    184.00358   -11.640671   -387.57168   -389.64091    2.0692367      1000000    2.8706633 
    4480    175.57801    -2.371983   -387.57314   -389.54762    1.9744858      1000000    2.9181729 
    4490     172.4787     8.582747   -387.57956   -389.51919    1.9396321      1000000    2.9378831 
    4500    179.85076    8.0729757   -387.58147     -389.604    2.0225356      1000000    2.8954839 
    4510    175.47088   -5.2810202   -387.57134   -389.54462     1.973281      1000000    2.9097951 
    4520    181.40239   -7.6736136   -387.57111    -389.6111    2.0399846      1000000    2.9245127 
    4530    156.96119   -4.1335149   -387.55778    -389.3229    1.7651279      1000000     2.897009 
    4540    169.65643   -9.6820636   -387.56023   -389.46813    1.9078939      1000000    2.8884009 
    4550    200.26036   -7.4858644   -387.56974    -389.8218    2.2520545      1000000    2.8792331 
    4560     182.9872    3.9048983   -387.56466   -389.62247    2.0578068      1000000    2.8675113 
    4570    174.13149    14.726833   -387.56311   -389.52133    1.9582187      1000000    2.8759852 
    4580    192.90148     18.16433   -387.55504   -389.72434    2.1692992      1000000    2.8724255 
    4590    189.63793    4.2351358   -387.55539   -389.68799    2.1325985      1000000      2.87314 
    4600    175.02171   -2.0634184   -387.55194   -389.52017    1.9682299      1000000    2.8684963 
    4610    156.39013   -8.2505231    -387.5424   -389.30111     1.758706      1000000    2.8831209 
    4620    192.09301    -9.816035   -387.53709   -389.69729    2.1602075      1000000    2.8804831 
    4630     181.9433   -5.1419499   -387.53798   -389.58405    2.0460675      1000000    2.8636034 
    4640    182.32921     2.672999   -387.54056   -389.59096    2.0504073      1000000    2.8448258 
    4650    177.61621    14.972229   -387.54502   -389.54243    1.9974066      1000000    2.8366289 
    4660    166.07478    13.653333   -387.54029   -389.40791     1.867616      1000000    2.8210378 
    4670    192.92059    10.761336   -387.53543   -389.70494    2.1695141      1000000    2.8188466 
    4680    154.32902   -11.934744   -387.53702   -389.27255    1.7355274      1000000    2.8120665 
    4690    170.49359   -9.7884921   -387.53988   -389.45719    1.9173082      1000000    2.7973101 
    4700    184.11196   -10.613845   -387.54204    -389.6125    2.0704555      1000000    2.7926168 
    4710      183.473   -7.5896919   -387.53903    -389.6023      2.06327      1000000    2.7610505 
    4720    185.62518    7.1272064   -387.53885   -389.62632    2.0874725      1000000    2.7381899 
    4730    166.25349    11.427582     -387.539   -389.40862    1.8696257      1000000    2.7273078 
    4740      205.597    9.5599145   -387.55506   -389.86713    2.3120683      1000000    2.7288719 
    4750    194.53396   -2.8526207   -387.55588   -389.74354    2.1876574      1000000    2.7234275 
    4760    163.47663   -2.7693272   -387.55061   -389.38901    1.8383981      1000000    2.7356556 
    4770    176.38238   -6.7945849    -387.5399   -389.52344    1.9835315      1000000    2.7332895 
    4780    197.57339   -6.3464879   -387.53961   -389.76145    2.2218378      1000000    2.7342975 
    4790    160.02244    4.7986347   -387.53961   -389.33916    1.7995536      1000000    2.7219962 
    4800    177.85074    12.438732   -387.54288   -389.54292     2.000044      1000000    2.7349355 
    4810    186.14093    13.170283   -387.54486   -389.63814    2.0932725      1000000    2.7641314 
    4820    197.23982    5.9674166   -387.54468   -389.76276    2.2180865      1000000    2.7750908 
    4830    160.30074   -7.8257699   -387.54261    -389.3453    1.8026833      1000000    2.8209771 
    4840    178.64771   -13.916844   -387.54923   -389.55824    2.0090066      1000000    2.8261622 
    4850    192.41236   -13.898992   -387.55227   -389.71607    2.1637987      1000000    2.7985575 
    4860    172.26097   -4.5549742    -387.5508   -389.48799    1.9371835      1000000    2.7913839 
    4870    170.36997    6.1829897   -387.55171   -389.46763    1.9159181      1000000    2.7733799 
    4880    192.95237     7.862454   -387.55251   -389.72238    2.1698715      1000000    2.7555675 
    4890    200.46472    5.8626149   -387.54959   -389.80394    2.2543526      1000000    2.7298924 
    4900    173.77777   -2.7759933   -387.54841   -389.50266     1.954241      1000000    2.7190511 
    4910     177.8021   -6.6730692   -387.56095   -389.56045     1.999497      1000000    2.6992622 
    4920    179.19297   -8.0586522   -387.53897   -389.55411    2.0151383      1000000     2.677277 
    4930    179.32042   -4.9172891   -387.53368   -389.55025    2.0165715      1000000    2.6498147 
    4940    163.15941   -2.5460302   -387.53811   -389.37294    1.8348307      1000000    2.6332731 
    4950    176.16604    7.7212305   -387.53642   -389.51752    1.9810986      1000000    2.6283627 
    4960      189.656    21.200029   -387.53258   -389.66538    2.1328017      1000000    2.6227923 
    4970     195.0295 -0.078044959   -387.53639   -389.72962    2.1932301      1000000     2.635596 
    4980    179.93746    -10.73031   -387.52683   -389.55034    2.0235106      1000000    2.5890262 
    4990    182.76329   -18.058716   -387.52621    -389.5815    2.0552888      1000000    2.5785669 
    5000     184.2396   -13.207271   -387.52568   -389.59758    2.0718909      1000000    2.5206081 
    5010     189.8792    -5.246014    -387.5297   -389.66501    2.1353117      1000000    2.4878838 
    5020    176.70944    7.2571287   -387.54236   -389.52957    1.9872094      1000000    2.4645986 
    5030    176.53555    9.1771252   -387.53611   -389.52136    1.9852539      1000000    2.4431513 
    5040    196.69444    8.2961003   -387.53403   -389.74598    2.2119534      1000000    2.4063398 
    5050    192.51249    10.144406   -387.52498    -389.6899    2.1649248      1000000    2.4210738 
    5060    175.64327   -9.1483097   -387.52409   -389.49931    1.9752197      1000000    2.4184264 
    5070     195.9724   0.59393817   -387.53484   -389.73867    2.2038336      1000000    2.3981827 
    5080    187.46081    1.6742431   -387.53579   -389.64391    2.1081154      1000000    2.4082264 
    5090    198.61727    3.8768984   -387.53852    -389.7721    2.2335769      1000000    2.4062653 
    5100    182.54293     5.261171   -387.53739    -389.5902    2.0528107      1000000    2.3895663 
    5110    184.97446    6.4068284    -387.5374   -389.61755    2.0801548      1000000    2.3706037 
    5120    186.90135    1.4696457   -387.53807   -389.63989    2.1018239      1000000    2.3593296 
    5130    184.77051   -5.3631471   -387.53433   -389.61219    2.0778613      1000000    2.3498091 
    5140    167.27852   -8.0769251   -387.53319   -389.41434    1.8811528      1000000    2.3695975 
    5150    185.62863   -7.8891167    -387.5351   -389.62261    2.0875113      1000000    2.4028246 
    5160    168.09293    4.9723864   -387.53786   -389.42818    1.8903114      1000000    2.4081133 
    5170    192.71785    12.782281   -387.53791   -389.70514    2.1672341      1000000    2.3891283 
    5180    188.37367    9.8522521   -387.53947   -389.65785    2.1183811      1000000     2.401456 
    5190    184.19248    7.8569672   -387.53614   -389.60751    2.0713609      1000000    2.3957591 
    5200    181.38893   -9.0161759   -387.53817     -389.578    2.0398333      1000000    2.3920859 
    5210    160.85173   -16.163372   -387.53836   -389.34724    1.8088795      1000000    2.4059726 
    5220    187.40546   -17.231658   -387.54433   -389.65183     2.107493      1000000    2.4096982 
    5230    182.87166   -2.9674249   -387.54553   -389.60204    2.0565074      1000000     2.402354 
    5240    190.31481    12.843778   -387.54595   -389.68616    2.1402105      1000000    2.4009905 
    5250    183.08869    12.167706   -387.54236   -389.60131    2.0589481      1000000    2.3943587 
    5260    179.25521    15.004424   -387.54476    -389.5606    2.0158382      1000000    2.3804418 
    5270    168.87944   0.74197105   -387.54346   -389.44262    1.8991561      1000000    2.3823046 
    5280    179.55011   -15.777346   -387.54538   -389.56454    2.0191546      1000000    2.3972065 
    5290    171.18013   -19.458911   -387.54636   -389.47138    1.9250289      1000000    2.3767773 
    5300    202.63777   -14.473029   -387.54181    -389.8206    2.2787899      1000000    2.3882492 
    5310    189.32625   -1.0243534   -387.54231   -389.67141    2.1290935      1000000    2.3914817 
    5320    177.50735    5.1409578     -387.539   -389.53518    1.9961824      1000000    2.4194669 
    5330     187.3803    31.879062   -387.53978   -389.64699      2.10721      1000000    2.4080663 
    5340    178.87253    8.8717101   -387.54056    -389.5521    2.0115347      1000000    2.4325659 
    5350     182.2997   -9.7289784   -387.54529   -389.59537    2.0500755      1000000    2.4620693 
    5360    158.94659   -10.427768   -387.54277   -389.33023     1.787455      1000000    2.4540211 
    5370    177.86602   -16.845422   -387.54418    -389.5444    2.0002159      1000000    2.4376724 
    5380    194.11961   -11.086668   -387.54612   -389.72912    2.1829978      1000000    2.4121679 
    5390    184.76566    2.9107583   -387.55072   -389.62853    2.0778067      1000000    2.3560107 
    5400    176.52558    18.349914    -387.5438   -389.52894    1.9851419      1000000    2.3045721 
    5410    179.81133    10.654113   -387.54245   -389.56454    2.0220921      1000000    2.3033845 
    5420     183.6338   -8.1347473   -387.54679   -389.61187    2.0650783      1000000    2.2816094 
    5430    189.59249   -17.091199   -387.54702   -389.67911    2.1320875      1000000    2.2636833 
    5440    167.49409   -16.870876   -387.55555   -389.43912     1.883577      1000000    2.2381095 
    5450    182.36561   -19.340201   -387.55652   -389.60733    2.0508166      1000000    2.2301123 
    5460    197.26273    2.1264045   -387.55418   -389.77252    2.2183442      1000000    2.1991994 
    5470    162.15473    24.866181   -387.55244   -389.37597    1.8235325      1000000    2.1450179 
    5480    186.58986    29.812628   -387.55364   -389.65196     2.098321      1000000    2.1176027 
    5490    195.46556    9.1400831   -387.55608   -389.75422    2.1981338      1000000    2.1185128 
    5500    171.79509   -1.0729939   -387.55516    -389.4871    1.9319445      1000000    2.0971144 
    5510    167.76535   -19.593785   -387.55031   -389.43694    1.8866274      1000000    2.0790248 
    5520    179.63306   -24.115919   -387.55098   -389.57106    2.0200874      1000000    2.0813473 
    5530    185.48682   -3.8140774   -387.54734   -389.63326    2.0859166      1000000    2.0705404 
    5540    182.79628    7.2773099   -387.55096   -389.60662    2.0556598      1000000    2.0776462 
    5550    197.64688    15.725027   -387.55537   -389.77803    2.2226642      1000000    2.0613558 
    5560    190.68747    14.653783    -387.5488    -389.6932    2.1444012      1000000    2.0533782 
    5570    169.09187    14.390831   -387.53931   -389.44085    1.9015451      1000000    2.0561641 
    5580    182.67113   -17.561044   -387.54948   -389.60374    2.0542524      1000000    2.0575964 
    5590    176.96271   -27.216643    -387.5426   -389.53266    1.9900576      1000000    2.0538017 
    5600    191.12501   -17.125769   -387.53861   -389.68793    2.1493216      1000000     2.036281 
    5610    195.05094    5.2642947   -387.53381   -389.72728    2.1934712      1000000    2.0195247 
    5620    183.92214    11.727568    -387.5322   -389.60052    2.0683208      1000000    2.0350843 
    5630    175.22042     11.66071   -387.52466   -389.49513    1.9704645      1000000    2.0421612 
    5640    201.19288    6.8437637   -387.52594   -389.78848    2.2625412      1000000    2.0291612 
    5650    177.41452   -9.0267461   -387.52604   -389.52118    1.9951385      1000000    2.0236121 
    5660    185.52893   -20.170605   -387.53508   -389.62147    2.0863902      1000000    2.0175686 
    5670    187.11596   -15.615078   -387.53454   -389.63878    2.1042374      1000000    2.0168781 
    5680    190.93653    2.1034773   -387.53575   -389.68295     2.147202      1000000    2.0013835 
    5690    184.20717    10.385767   -387.53872   -389.61025    2.0715262      1000000    1.9724001 
    5700    183.80731    21.294917   -387.54021   -389.60724    2.0670294      1000000    1.9788865 
    5710    189.15121    14.592771   -387.53788   -389.66501     2.127125      1000000    1.9869287 
    5720    184.28477   -2.6827972   -387.53683   -389.60922    2.0723989      1000000    2.0003107 
    5730    172.53552   -16.087214   -387.53729   -389.47756    1.9402711      1000000    1.9668609 
    5740    174.10479   -21.700589   -387.53897   -389.49689    1.9579185      1000000    2.0095975 
    5750    184.09921    -13.39969   -387.54092   -389.61123    2.0703121      1000000    2.0177518 
    5760    200.54526    3.9398018   -387.54256   -389.79781    2.2552583      1000000    2.0109423 
    5770    159.57808    23.407313   -387.54301   -389.33756    1.7945564      1000000    2.0109817 
    5780    196.44531    27.682766   -387.53946   -389.74861    2.2091518      1000000    2.0321673 
    5790    167.95544    7.3468921   -387.53738   -389.42614    1.8887651      1000000    2.0599034 
    5800    188.25557    -7.145198    -387.5386   -389.65565     2.117053      1000000    2.0430975 
    5810    167.15693   -8.8200196   -387.53083   -389.41062    1.8797854      1000000    2.0844801 
    5820    161.59234    -22.17503    -387.5313   -389.34851    1.8172081      1000000    2.1166208 
    5830     176.4583   -9.6127609   -387.53758   -389.52197    1.9843852      1000000    2.1325388 
    5840    174.54829    8.7114336   -387.53798   -389.50088    1.9629059      1000000    2.1166259 
    5850    173.73651    23.732652   -387.53625   -389.49003    1.9537769      1000000    2.1254174 
    5860    169.71189    11.127245   -387.52772   -389.43624    1.9085176      1000000    2.1547565 
    5870    173.22879   -8.5599099   -387.52843    -389.4765    1.9480673      1000000    2.1708877 
    5880    174.55442   -18.482565   -387.53107   -389.49405    1.9629749      1000000    2.1546328 
    5890    180.72608   -22.127987   -387.53314   -389.56552    2.0323791      1000000    2.1821198 
    5900    169.10044   -14.200513   -387.53159   -389.43323    1.9016414      1000000    2.2059198 
    5910    210.72198    7.4926889   -387.53351   -389.90321     2.369702      1000000    2.2154704 
    5920    187.29282    26.714409   -387.53173   -389.63795    2.1062263      1000000    2.2245824 
    5930    171.98702    23.110587   -387.53009   -389.46419    1.9341028      1000000    2.2481994 
    5940     191.4062    2.5652978   -387.53759   -389.69008    2.1524838      1000000    2.2953378 
    5950    181.39505   -14.483539   -387.53533   -389.57524    2.0399021      1000000    2.3024113 
    5960    172.67819   -24.953864     -387.537   -389.47887    1.9418754      1000000    2.3183158 
    5970    185.89652   -20.652035   -387.53922   -389.62975     2.090524      1000000    2.3288424 
    5980    171.93977    4.1663614    -387.5373   -389.47087    1.9335715      1000000    2.3723194 
    5990    195.67463    19.863253   -387.54029   -389.74078     2.200485      1000000    2.3893292 
    6000    165.08313    24.352575   -387.53417   -389.39063    1.8564642      1000000    2.4385833 
    6010    212.10687    19.540636    -387.5384   -389.92368     2.385276      1000000    2.4676888 
    6020    196.12389    1.5202878   -387.53087    -389.7364    2.2055372      1000000    2.4996604 
    6030    186.37802   -26.640413   -387.53465   -389.63059    2.0959387      1000000    2.5561601 
    6040    165.70337   -26.905096   -387.53632   -389.39976    1.8634392      1000000    2.5948729 
    6050    188.43597   -17.138301   -387.53979   -389.65887    2.1190817      1000000    2.6239778 
    6060    200.81662    4.5286278   -387.54262   -389.80093    2.2583099      1000000    2.6539786 
    6070    172.26865    29.897482   -387.54216   -389.47943    1.9372699      1000000     2.717723 
    6080    191.21445    22.125062   -387.54292   -389.69324    2.1503274      1000000    2.7872037 
    6090    202.80129    4.3987591   -387.54543   -389.82606    2.2806288      1000000    2.8436344 
    6100    222.40523   -11.451845   -387.55321    -390.0543    2.5010876      1000000    2.9059542 
    6110    1084.8766   -12.158998   -376.99228    -389.1924    12.200123      1000000    3.0067806 
    6120    1235.4651   -19.056903   -371.13468   -385.02826    13.893586      1000000    3.0554353 
    6130    1192.7762  -0.81408275   -371.19062   -384.60414    13.413523      1000000    3.0588812 
    6140    904.47107    16.990867   -371.30262   -381.47397    10.171349      1000000    3.1366033 
    6150    954.27286    33.533983   -371.33922   -382.07063    10.731402      1000000    3.2639612 
    6160     983.9416    13.203759   -371.32291   -382.38796    11.065046      1000000    3.3197073 
    6170    837.21339    15.291892   -371.19472   -380.60971    9.4149943      1000000    3.4593192 
    6180    808.90171   -28.353116   -371.18515   -380.28176    9.0966114      1000000    3.3967537 
    6190    876.19796   -15.704386   -371.55197   -381.40537    9.8534004      1000000    3.6398391 
    6200    1050.3482     -9.36027   -371.62413   -383.43596     11.81183      1000000    3.7904611 
    6210    822.91459   -5.4231287   -371.56268   -380.81687    9.2541951      1000000    3.8206783 
    6220    720.07505    1.6545813   -371.50241   -379.60011    8.0976995      1000000    3.8464364 
    6230    770.16069     2.566554   -371.50121   -380.16215    8.6609441      1000000    4.0016885 
    6240      782.059  0.060021128    -371.5385   -380.33325    8.7947482      1000000    4.0871595 
    6250      845.987   -33.736893   -371.52616   -381.03982     9.513659      1000000    4.1377455 
    6260    3205.5952   -81.718616    -303.6168   -339.66575    36.048946      1000000     4.231381 
    6270    6918.9537     42.59967   -287.49348    -365.3015    77.808011      1000000    4.2349389 
    6280    4652.0979   0.97083938   -284.40254   -336.71833    52.315784      1000000    4.1970895 
    6290    6248.1968    21.755264   -279.83401   -350.09893    70.264925      1000000     4.456917 
    6300    4795.2932   -8.9916081   -277.98327   -331.90937    53.926105      1000000    4.3380992 
    6310    7141.7982    70.842866   -279.34997   -359.66401    80.314039      1000000    4.2366673 
    6320    3359.0708   -51.835555    -276.2395   -314.01438    37.774876      1000000    4.4161962 
    6330    7495.0165    80.822914   -277.49557   -361.78177    84.286202      1000000    4.4360493 
    6340    5593.9004   -27.213522   -275.64481   -338.55176    62.906949      1000000    4.7903616 
    6350    5799.3139   -35.248943   -276.93091   -342.14787    65.216954      1000000    4.7963365 
    6360    4704.6401   -27.207536   -276.99181   -329.89846    52.906654      1000000    4.7487606 
    6370    7030.9832     61.48497   -278.15892   -357.22677    79.067854      1000000     5.074241 
    6380    4870.9748   -4.9703278   -277.01054   -331.78773    54.777193      1000000    5.2064412 
    6390    6094.4795    22.507761   -278.25428   -346.79055    68.536278      1000000    5.0565997 
    6400    4018.9483   -66.980582   -276.01149    -321.2071    45.195616      1000000    4.8570737 
    6410    6448.8776     6.634613   -276.84099    -349.3627    72.521708      1000000    4.6095573 
    6420    4941.6908   -69.588994     -276.204   -331.77644    55.572439      1000000    4.8952269 
    6430    5865.3438   -20.431354   -276.00121   -341.96071    65.959502      1000000    5.1055604 
    6440    4075.0121   -76.646406   -276.32705   -322.15314    45.826089      1000000    5.0477625 
    6450    5416.5339    13.919423    -276.6341   -337.54645     60.91235      1000000     4.723649 
    6460    5858.7147    -12.40864   -264.88616   -330.77112    65.884954      1000000    4.4223329 
    6470    7072.9093    38.688395   -265.09203   -344.63137     79.53934      1000000    4.3746652 
    6480    7350.8875    60.873678   -261.46438   -344.12976     82.66538      1000000     4.348747 
    6490    5268.9907   -44.102648   -259.10193   -318.35506    59.253134      1000000      4.35449 
    6500    5497.4279   -20.052605   -259.81856   -321.64061    61.822054      1000000    4.0758022 
    6510    7235.1641    45.887487   -261.32399   -342.68799    81.363997      1000000    4.4596888 
    6520    3476.3341   -51.401505   -259.55858   -298.65216    39.093576      1000000    4.5915037 
    6530    6401.4036     48.25872   -260.70751   -332.69535    71.987833      1000000    4.4629634 
    6540    7238.4081    25.265612   -259.76032    -341.1608    81.400479      1000000    5.0030716 
    6550    3910.9285   -63.853983   -257.96537   -301.94624    43.980865      1000000    4.6913488 
    6560    6250.9845   -14.403552   -259.98352    -330.2798    70.296276      1000000    4.3446667 
    6570    6694.3644    -7.547609     -259.231   -334.51336    75.282362      1000000    3.9195035 
    6580    6501.4694    10.322225   -258.50932   -331.62245    73.113136      1000000    3.8636935 
    6590     5311.114    15.196339   -258.37676    -318.1036    59.726837      1000000    4.0439303 
    6600    6512.8275    42.030572   -259.88852   -333.12939    73.240866      1000000    3.8633217 
    6610    7624.7008    73.803717   -260.10217   -345.84675    85.744584      1000000    4.0609894 
    6620    4111.8265   -78.852487    -261.4064   -307.64649     46.24009      1000000    3.8526822 
    6630    4453.0982   -104.00574   -262.08268   -312.16058    50.077906      1000000    4.1087883 
    6640    4999.7197   -40.963251   -263.76035   -319.98536    56.225011      1000000    3.9452191 
    6650    5557.9151   -3.6003556   -262.23861   -324.74088    62.502271      1000000    3.7428334 
    6660    5681.3231   -13.895764   -262.63319   -326.52326    63.890072      1000000    3.8401129 
    6670    5070.7217    13.251012   -261.94864   -318.97211    57.023473      1000000    3.6116058 
    6680    4825.9224    3.2829877     -261.529   -315.79955     54.27055      1000000    3.7200507 
    6690    4892.8653    22.857211   -262.04098   -317.06434    55.023366      1000000    3.5560047 
    6700    5512.2984   -11.758291   -262.09623   -324.08551    61.989283      1000000    3.5766805 
    6710    4790.7593   -59.665065   -261.86035   -315.73547    53.875119      1000000    3.5322449 
    6720    5457.7284   -29.515866   -262.60927   -323.98488    61.375609      1000000     2.980167 
    6730    5903.7802    37.465095   -262.80698   -329.19872    66.391743      1000000    2.8037879 
    6740    6930.5165    60.277459   -262.56245    -340.5005    77.938042      1000000    3.1585309 
    6750    5618.1008    28.860577   -259.98193   -323.16103    63.179097      1000000    2.8829118 
    6760    5724.8731    50.718355   -260.04479   -324.42461     64.37982      1000000    2.8561383 
    6770    6583.5077    15.840593   -260.22679    -334.2625    74.035709      1000000    2.6389596 
    6780    6203.7369   -27.437281   -260.28186   -330.04681    69.764946      1000000    2.5961801 
    6790    5295.0214   -90.612753   -259.98835   -319.53421    59.545865      1000000    2.4666378 
    6800    6120.0625    -74.08004    -258.0411   -326.86507    68.823975      1000000    2.7823112 
    6810    6237.0866    -6.652663    -258.2255   -328.36548    70.139984      1000000     2.383445 
    6820    5696.6613    14.712534   -255.99112   -320.05368     64.06256      1000000    2.3366957 
    6830    5316.8149   -16.147083    -255.5676   -315.35855    59.790947      1000000    2.3323019 
    6840    7259.6941    69.851569    -256.8638   -338.50365    81.639853      1000000    2.1930527 
    6850    5681.2416    47.929237    -256.8293   -320.71846    63.889156      1000000    2.0266686 
    6860    5807.9296   -56.132606   -256.27589   -321.58974    65.313842      1000000      1.79143 
    6870    6729.5267   -3.1146483   -256.99613   -332.67392    75.677785      1000000    1.6512568 
    6880    5618.1983   -10.543008   -256.40839   -319.58858    63.180193      1000000    1.6402841 
    6890    6068.8459   -31.990078   -254.86439   -323.11241    68.248011      1000000    1.5879168 
    6900    6168.7307   -2.1372439    -254.7608   -324.13208    69.371279      1000000    1.3199542 
    6910    6591.1729    27.663249   -254.85301   -328.97492    74.121909      1000000     1.420784 
    6920     6103.656    11.539124   -254.80873    -323.4482    68.639473      1000000    1.1326135 
    6930    6489.4704    60.781706   -254.67031   -327.64851      72.9782      1000000    1.3683375 
[...]
    7590    9272.9939   -1.2952187   -181.51428   -285.79496    104.28068      1000000    10.107208 
    7600    9130.8823   -39.289505   -182.53476   -285.21731    102.68255      1000000    10.341534 
    7610    8282.8557    -58.02589   -182.46822   -275.61417    93.145952      1000000    10.919154 
    7620    9492.1033   -42.291155    -182.6012    -289.3459    106.74471      1000000    11.804908 
    7630     9634.228    39.424307   -182.22508   -290.56807    108.34299      1000000      11.5622 
    7640    8494.6082    33.195035   -181.37106   -276.89831    95.527243      1000000    11.749941 
    7650    8731.2405    55.520378   -168.06512   -266.25344    98.188323      1000000    11.244834 
    7660    8148.5792   -39.163632   -168.56677   -260.20269    91.635927      1000000    11.576979 
    7670    8911.9798   -61.127927   -162.58245    -262.8033    100.22085      1000000    12.001693 
    7680    8524.3356   -95.873427   -162.51274   -258.37428    95.861547      1000000    11.834201 
    7690    8783.0331   -54.972215   -161.94832   -260.71909    98.770764      1000000    11.824069 
    7700    8919.4008   -45.703641   -161.46076   -261.76506    100.30431      1000000    11.680512 
    7710    7937.9323   -27.751067   -161.00291   -250.26998     89.26707      1000000     12.31755 
    7720    9851.3795   -29.908478   -161.45842   -272.24342    110.78499      1000000    12.660159 
    7730    9846.2327    11.408348   -161.99957   -272.72668    110.72712      1000000     13.22926 
    7740    10109.079    67.055442   -161.77277   -275.45576    113.68299      1000000    12.810703 
    7750    8929.2153   -11.992613   -161.72964   -262.14432    100.41467      1000000    13.555557 
    7760    10275.188    -25.25859   -162.19346   -277.74445    115.55099      1000000    13.794914 
    7770    10536.959    25.638114   -162.22133    -280.7161    118.49477      1000000    14.387391 
    7780    9988.0833    2.6653011   -162.03073   -274.35305    112.32232      1000000    14.768964 
    7790    9576.7195    18.891739   -162.00468   -269.70095    107.69627      1000000    14.956644 
    7800     9244.128   -28.224511   -162.14991   -266.10598    103.95607      1000000    15.337836 
    7810    8873.7539   -44.097026   -161.21885   -261.00983    99.790976      1000000    15.777113 
    7820    9446.5764    77.240235    -161.3084   -267.54113    106.23273      1000000    16.186771 
    7830    10092.937    16.355308   -161.76468   -275.26614    113.50146      1000000    16.136624 
    7840    9758.8593   -64.972515   -162.06881   -271.81335    109.74455      1000000    15.986334 
    7850    9905.8921   -20.884298   -161.54212   -272.94014    111.39802      1000000    15.422403 
    7860    9113.1719   -27.899291   -156.51944   -259.00283    102.48338      1000000     15.52125 
    7870    9995.9477   -27.871392    -157.3138   -269.72455    112.41076      1000000    15.834265 
    7880    10474.599    20.227961   -157.62475   -275.41824    117.79349      1000000    15.656323 
    7890    9864.2084    87.191999   -157.60381   -268.53307    110.92926      1000000     14.48239 
    7900    9047.9113    -5.811975   -157.07157   -258.82106    101.74949      1000000    14.044959 
    7910    10756.978    18.867868   -155.73244   -276.70147    120.96902      1000000    13.970676 
    7920    9298.4199    61.955836   -155.25214   -259.81875    104.56661      1000000     13.86044 
    7930    9374.0887   -21.535436    -154.8592   -260.27675    105.41756      1000000    13.907859 
    7940    9108.0083   -16.560644   -154.58664   -257.01196    102.42531      1000000    13.690624 
    7950    9920.1512    91.319837   -155.20297   -266.76134    111.55838      1000000    14.053689 
    7960    8998.1403   -22.419359   -154.27384   -255.46362    101.18978      1000000    14.199135 
    7970    8323.9338   -63.905715    -154.9219    -248.5298    93.607901      1000000    14.490867 
    7980    9904.1135    32.850141   -149.61348    -260.9915    111.37802      1000000    14.634126 
    7990    8836.7254   -20.882222   -147.88176   -247.25633    99.374567      1000000     14.89968 
    8000    9866.8481  -0.93044934   -148.32593   -259.28488    110.95895      1000000    15.323717 
    8010    10137.514    28.829926   -148.25862   -262.26138    114.00276      1000000    15.304162 
    8020    8519.6781   -27.847008   -147.85023    -243.6594     95.80917      1000000    15.340177 
    8030    9833.7348    47.947606   -144.70569   -255.29226    110.58657      1000000    15.623885 
    8040    10356.113   -1.9689797   -143.91058   -260.37162    116.46104      1000000    15.663675 
    8050    8916.3488   -82.326012   -143.71128   -243.98127    100.26998      1000000    16.267214 
    8060    8966.6799   -4.3464806   -143.87081    -244.7068    100.83599      1000000    16.209228 
    8070    9867.9074   -23.591637   -137.69292   -248.66378    110.97086      1000000    16.161417 
    8080    8993.6055    15.266739    -137.5976   -238.73638    101.13878      1000000    16.901583 
    8090    10319.875    19.628584   -138.28181   -254.33534    116.05353      1000000    17.399213 
    8100    9732.7651    -41.33793   -137.73576   -247.18687     109.4511      1000000    17.746597 
    8110    10313.646    23.161227   -137.70151   -253.68499    115.98348      1000000     18.52227 
    8120    11013.486    31.976068    -125.7608   -249.61441    123.85362      1000000    18.847076 
    8130    9224.1719   -49.210401   -125.13712   -228.86877    103.73165      1000000    20.392258 
    8140    9611.8231   -21.723044   -125.21709   -233.30812    108.09103      1000000    20.250427 
    8150    10123.938   -53.059071    -125.4424   -239.29248    113.85009      1000000    20.722512 
    8160    10462.066    27.993287   -125.09498   -242.74753    117.65255      1000000    20.435804 
    8170    10201.077    79.317637   -124.79411   -239.51168    114.71757      1000000    20.290437 
    8180    10863.216    25.030753    -128.3221   -250.48584    122.16374      1000000    20.829914 
    8190    9317.9093   -18.341546   -127.94938   -232.73517    104.78579      1000000    21.510043 
    8200    10261.934    59.780032   -127.01043   -242.41237    115.40194      1000000    21.805027 
    8210     9841.899   -11.786757   -126.78054   -237.45892    110.67838      1000000    21.844576 
    8220    8397.5306   -79.858421   -127.80487   -222.24041    94.435544      1000000    22.849579 
    8230    9429.7326   -86.357116     -127.486   -233.52931    106.04331      1000000    22.859533 
    8240    9814.8177   -51.243052   -127.56551   -237.93935    110.37383      1000000    23.934759 
    8250    9338.0948   -51.891508   -127.82036   -232.83314    105.01278      1000000    23.153902 
    8260     9961.883   -12.008699   -127.98209   -240.00976    112.02768      1000000    23.900086 
    8270     9218.894    3.3865811   -126.91133   -230.58363     103.6723      1000000    24.164454 
    8280    8691.6877   -83.800503   -130.47714   -228.22066    97.743526      1000000    24.897942 
    8290     8824.616   -50.905251    -129.7649   -229.00329    99.238389      1000000    24.919358 
    8300    8443.6854    51.925541   -127.96263   -222.91721    94.954584      1000000    25.081165 
    8310    10188.939    67.602739    -128.7666   -243.34767    114.58106      1000000    25.253609 
    8320    10904.775    82.912898   -128.15371    -250.7848    122.63109      1000000    25.484795 
    8330    9272.8024    22.651763   -127.52242   -231.80095    104.27853      1000000    26.030981 
    8340     10812.61    40.550128   -128.92029   -250.51493    121.59464      1000000    27.019427 
    8350    10104.479   -26.938833   -127.65661   -241.28787    113.63126      1000000    27.828043 
    8360    9587.8753   -48.551954   -126.73623   -234.55795    107.82172      1000000    28.839887 
    8370    10081.284   -19.913167   -124.79852   -238.16894    113.37042      1000000    29.334684 
    8380    10495.788    43.584721   -124.89464   -242.92642    118.03178      1000000    29.466483 
    8390     10148.16    59.683631   -125.05283   -239.17531    114.12248      1000000    30.062796 
    8400      10222.4    35.312803   -124.64831   -239.60566    114.95735      1000000    30.097787 
    8410    10489.995   -18.037766   -124.75919   -242.72583    117.96663      1000000    32.175475 
    8420    9318.2806   -65.130851   -124.83737   -229.62733    104.78996      1000000    32.413003 
    8430    10446.797   -2.2424228   -124.93287   -242.41371    117.48084      1000000    33.230693 
    8440    9251.6316    18.296624   -127.76595    -231.8064    104.04045      1000000    33.983495 
    8450    9468.5891    22.047396   -127.74387   -234.22415    106.48027      1000000    34.166543 
    8460    8172.3063   -27.169505   -127.42076   -219.32351    91.902755      1000000    35.529415 
    8470    8987.6829    12.391528   -125.56684   -226.63902    101.07218      1000000    35.913127 
    8480    9594.6733    10.953566   -125.96917   -233.86734    107.89817      1000000    36.696112 
    8490    9905.7682   -22.307232   -126.08118   -237.47781    111.39663      1000000    38.131942 
    8500     9930.594    42.952275   -126.25504   -237.93085    111.67581      1000000    38.957758 
    8510    9716.9765    17.618876   -125.73334   -235.00689    109.27355      1000000    39.489042 
    8520    9377.2414  -0.82610036   -125.51831   -230.97132    105.45301      1000000    40.642305 
    8530    9081.8827    12.743812   -125.96505   -228.09657    102.13152      1000000     41.02342 
    8540    8374.2724   -13.802773   -125.42905   -219.60304    94.173991      1000000    42.173844 
    8550    9042.5733   -40.097865      -126.28   -227.96946    101.68946      1000000    42.115582 
    8560    9389.3614    15.722599   -125.78621   -231.37551    105.58931      1000000    44.319881 
    8570    10380.152    18.795709   -125.62249   -242.35386    116.73137      1000000    44.708307 
    8580    9579.8272   -6.0652716    -125.4339   -233.16512    107.73122      1000000    46.376639 
    8590    9090.4642   -49.951824   -125.29915   -227.52717    102.22802      1000000     46.79644 
    8600    9933.8183    4.1441829    -125.6459   -237.35797    111.71207      1000000    48.282829 
    8610    9647.8667    4.3390475   -125.02489   -233.52125    108.49636      1000000    48.268318 
    8620    9569.2938    10.742758   -125.00263   -232.61539    107.61276      1000000    48.405078 
    8630    9556.5195    -2.381819   -125.05611   -232.52522    107.46911      1000000    49.223178 
    8640      10429.8    33.263553   -125.29084   -242.58054     117.2897      1000000    49.913426 
    8650    9427.2216   -5.0491948   -125.20783    -231.2229    106.01507      1000000    50.628934 
    8660     8819.855   -81.150256   -124.89769   -224.08254    99.184849      1000000    51.040016 
    8670    9906.9738     -29.9187   -125.12947   -236.53966    111.41019      1000000    51.990791 
    8680    9800.9716    9.7424077   -115.32088   -225.53901    110.21813      1000000    51.843822 
    8690    9628.1424   -6.4814743   -115.54794    -223.8225    108.27455      1000000    53.060524 
    8700    10900.195    64.295158   -116.27194   -238.85153    122.57959      1000000    54.008632 
    8710    9339.4493    -46.75114    -115.5475   -220.57551    105.02802      1000000    54.254898 
    8720    9127.1567   -77.214907   -115.70003   -218.34068    102.64065      1000000    55.628443 
    8730     11158.08    18.632862   -116.26257   -241.74224    125.47967      1000000    55.943749 
    8740    9694.3577    56.276166   -115.83608   -224.85527    109.01918      1000000    57.609094 
    8750    10730.432    4.3740795   -115.85408   -236.52457     120.6705      1000000    58.797738 
    8760    10718.249    7.7910204   -115.86836   -236.40185    120.53349      1000000    59.232651 
    8770    8974.1039    56.825794   -115.45628   -216.37575    100.91948      1000000    59.568378 
    8780    11372.854    63.933514   -115.34058   -243.23551    127.89493      1000000    60.932558 
    8790    9566.9769   -61.273414   -115.15357   -222.74028    107.58671      1000000    62.252552 
    8800     10015.96    32.925189   -114.77663   -227.41243    112.63581      1000000    63.064931 
    8810    10257.261    34.528307   -114.60314   -229.95253    115.34939      1000000    64.485669 
    8820    9512.1455   -23.895883   -114.27504   -221.24513    106.97009      1000000    66.422677 
    8830    9872.4438   -43.585843   -114.63267   -225.65455    111.02188      1000000    67.921859 
    8840    9451.4511   -66.267527   -114.53971   -220.82726    106.28755      1000000    69.563232 
    8850    10898.739   -6.8710496   -113.96219    -236.5254    122.56321      1000000     69.82212 
    8860    10687.619    33.430543   -107.91132   -228.10036    120.18904      1000000    72.391041 
    8870    9235.0227   -44.702905   -100.60944   -204.46311    103.85367      1000000    73.765887 
    8880    10360.906   -28.800982    -101.5521   -218.06704    116.51494      1000000    74.585868 
    8890    10134.514   -2.9552765   -100.98549   -214.95451    113.96902      1000000    75.884955 
    8900    11572.898    54.004459   -97.970151   -228.11471    130.14456      1000000    78.034162 
    8910    10194.148    30.534411   -95.589161   -210.22881    114.63965      1000000    79.775716 
    8920     11140.66   -23.657377   -96.192539   -221.47631    125.28377      1000000    82.152696 
    8930    10553.346    2.1630927   -92.149573   -210.82862    118.67905      1000000    83.531331 
    8940    12688.621   -3.3157348   -75.792105   -218.48367    142.69157      1000000    85.642758 
    8950    10216.399   -28.727687   -74.353888   -189.24376    114.88987      1000000    87.341282 
    8960    12843.748     13.29945   -75.252394   -219.68847    144.43608      1000000    90.424629 
    8970    11058.108   -5.5121893   -74.880564   -199.23599    124.35542      1000000    91.816393 
    8980    10460.831   -5.1339837   -74.406757   -192.04542    117.63867      1000000    93.797577 
    8990    10522.444   -38.035807   -71.716499   -190.04804    118.33154      1000000    96.203423 
    9000    11525.104   -11.401536   -72.249772   -201.85686    129.60709      1000000     97.72685 
    9010    11480.599   -25.695558   -72.701702   -201.80831     129.1066      1000000    98.526344 
    9020    10916.655   -86.925229    -73.31028   -196.07498     122.7647      1000000    101.60209 
    9030    10856.865   -10.039817    -73.44979   -195.54211    122.09232      1000000    101.43436 
    9040    10317.729   -9.2688175   -73.290109    -189.3195    116.02939      1000000    103.45206 
    9050    11319.681   -18.563068   -73.081182   -200.37816    127.29698      1000000     104.3954 
    9060    12273.822    54.064082   -71.502301   -209.52919    138.02689      1000000    105.98277 
    9070    11334.936    26.741696   -72.635694   -200.10422    127.46853      1000000    107.84496 
    9080    10820.121   -16.354275   -71.639849   -193.31896    121.67911      1000000     110.3316 
    9090     12987.57    45.443089   -73.086679   -219.14012    146.05344      1000000    110.97693 
    9100    13570.292    49.248856   -73.405828   -226.01234    152.60652      1000000    112.90439 
    9110    10679.121   -90.936513   -74.006861   -194.10033    120.09347      1000000    112.90503 
    9120    11903.089    57.671655    -74.53594    -208.3937    133.85776      1000000    113.14552 
    9130    10185.135    13.629285   -72.995517    -187.5338    114.53828      1000000    114.45107 
    9140    10254.883    24.393909   -73.959283   -189.28193    115.32264      1000000    115.76496 
    9150    12047.588    -38.86649   -73.703433   -209.18618    135.48275      1000000    119.36528 
    9160    11431.413    17.330301   -73.957376   -202.51084    128.55347      1000000    120.55518 
    9170    12051.683   -3.2609827   -73.537865   -209.06667     135.5288      1000000    121.20128 
    9180    11756.388    50.655245   -72.531594   -204.73962    132.20802      1000000    123.03185 
    9190    9691.9049   -75.604128   -71.998452   -180.99005     108.9916      1000000    123.39489 
    9200    11829.322    -58.71308   -70.641371   -203.66958    133.02821      1000000    124.96053 
    9210    10904.654   -25.309921   -70.662499   -193.29224    122.62974      1000000    125.62626 
    9220    11757.113    58.640192   -71.108468   -203.32464    132.21617      1000000    127.29527 
    9230    12774.853    -13.31136   -71.386289    -215.0476    143.66131      1000000    128.83852 
    9240    11471.787   -77.607754   -70.868261   -199.87577    129.00751      1000000     130.8704 
    9250    11024.082   -10.118592   -70.925446   -194.89822    123.97277      1000000    130.23025 
    9260     10315.22    13.331151   -71.369517   -187.37069    116.00117      1000000     131.2092 
    9270    11604.011    45.250212   -72.216543   -202.71098    130.49444      1000000    133.17469 
    9280    11829.743    60.660938    -71.69936    -204.7323    133.03294      1000000    134.77576 
    9290    11325.937    59.668358   -71.812858   -199.18019    127.36733      1000000    136.04603 
    9300    10677.329    22.881507    -71.33073   -191.40405    120.07332      1000000    138.19517 
    9310    12813.952    26.253118   -71.749473   -215.85047    144.10099      1000000    138.69631 
    9320      11110.7     16.47403   -70.995507   -195.94235    124.94685      1000000    140.37371 
    9330    11625.991   -50.833662   -71.323664   -202.06529    130.74162      1000000     141.3147 
    9340     11374.27   -92.741315   -71.143214   -199.05407    127.91086      1000000    143.04279 
    9350    11039.972   -81.106079   -70.832719   -194.98419    124.15147      1000000    144.99395 
    9360    12727.757    59.534411   -70.854898   -213.98658    143.13168      1000000    145.88677 
    9370    10540.328   -23.499431   -70.458689   -188.99134    118.53265      1000000    148.51191 
    9380    11675.629    2.4609697   -70.428177   -201.72801    131.29984      1000000    148.29863 
    9390    12405.424    91.072171   -69.558979   -209.06582    139.50684      1000000    151.54856 
    9400    10603.313   -63.527839    -69.89416   -189.13512    119.24096      1000000    152.99916 
    9410     12277.69    16.546821   -70.305862   -208.37626     138.0704      1000000    154.35333 
    9420    11500.731   -11.255865   -70.170839   -199.50383      129.333      1000000    155.88991 
    9430    11896.498   -14.815118   -69.624252    -203.4079    133.78364      1000000    157.59502 
    9440    11150.965   -12.216929   -69.106955   -194.50661    125.39965      1000000    158.42189 
    9450    11593.981    71.229319   -69.060393   -199.44205    130.38166      1000000    158.65431 
    9460    11036.278   -27.579896    -68.39862   -192.50855    124.10993      1000000    160.96209 
    9470    12910.832    3.1089013   -69.132524     -214.323    145.19048      1000000    160.07336 
    9480    13456.534    17.434173   -68.172182   -219.49942    151.32724      1000000    161.90028 
    9490    11379.163    45.027933   -67.386998   -195.35288    127.96589      1000000    161.54813 
    9500    12956.052    70.957734   -70.049283   -215.74828      145.699      1000000    163.32827 
    9510    11163.572   -41.837152   -69.635737   -195.17716    125.54142      1000000    166.11575 
    9520    11900.892    75.935428   -69.697345    -203.5304    133.83306      1000000    166.60794 
    9530    11244.739     32.03652    -70.30356   -196.75777    126.45421      1000000    168.82137 
    9540      10427.4   -82.089759   -68.796591    -186.0593    117.26271      1000000    170.73492 
    9550    11904.491   -13.962074   -69.032226   -202.90576    133.87353      1000000    172.06518 
    9560    10947.862    26.283786   -69.399479   -192.51511    123.11563      1000000    174.1562