#	reset_timestep  	0
	fix 			1 all nve

	compute		keSource all ke/atom
	compute		keSource2 all atom/molecule c_keSource
	compute		keSink all ke/atom
	compute		keSink2 all atom/molecule c_keSink
	fix		cRes hSink heat 1 -${heat}
	fix		cRes hSink heat 1 -0.01
	fix		hRes hSource heat 1 ${heat}
	fix		hRes hSource heat 1 0.01
	fix		3 moving ave/time 10 100 1000 c_movingTemp
    	thermo_style	custom step c_movingTemp press etotal pe ke vol

	fix 		kemolSource all ave/time 10 100 1000 c_keSource2 file kemolSource.txt mode vector
	fix 		kemolSink all ave/time 10 100 1000 c_keSink2 file kemolSink.txt mode vector
	
	compute 		myDis all msd 
	thermo_style 		custom step temp press vol c_myDis[4] c_movingTemp 
	thermo			1000
	timestep		${dt}
	timestep		0.001
	run			3000000
WARNING: More than one compute ke/atom
WARNING: More than one compute ke/atom
Memory usage per processor = 3.97196 Mbytes
Step Temp Press Volume myDis[4] movingTe 
  200000     259.9769    19060.294     2924.207 2.3928983e-30     259.9769 
  201000    297.44117    8547.2564     2924.207    10.242578    297.44117 
  202000    283.58988    10932.851     2924.207    28.067219    283.58988 
  203000    265.18632    20153.503     2924.207    35.626849    265.18632 
  204000    286.89386    4479.8663     2924.207    28.197444    286.89386 
  205000    295.35308    11751.664     2924.207    15.648651    295.35308 
  206000    293.15201    15512.455     2924.207    13.147738    293.15201 
  207000    290.15373    9841.4045     2924.207    20.469063    290.15373 
  208000    288.58404    19631.341     2924.207     25.38373    288.58404 
  209000    303.96615    6399.6319     2924.207     29.58785    303.96615 
  210000    289.65344    14536.467     2924.207    30.640956    289.65344 
  211000     276.2531    16564.673     2924.207    25.886866     276.2531 
  212000    295.46773    19350.048     2924.207    21.880466    295.46773 
  213000    278.51054    9450.6652     2924.207    23.731885    278.51054 
  214000     286.7159    18654.732     2924.207    28.087238     286.7159 
  215000    280.88967    10792.366     2924.207    30.810037    280.88967 
  216000    278.88333    15751.371     2924.207    28.011311    278.88333 
  217000    281.20403    5920.6188     2924.207    24.721724    281.20403 
  218000    276.93832     17058.39     2924.207    26.708618    276.93832 
  219000    288.68172    11737.325     2924.207    33.177271    288.68172 
  220000    289.68226    11479.098     2924.207    30.450783    289.68226 
  221000    296.03901    10606.236     2924.207    19.840689    296.03901 
  222000    265.52023    14193.793     2924.207    21.313481    265.52023 
  223000    295.61683    16551.541     2924.207    30.258938    295.61683 
  224000     277.8625    11533.989     2924.207    30.865801     277.8625 
  225000    297.22548    12897.374     2924.207     23.31621    297.22548 
  226000     305.0133    6837.2726     2924.207    21.166465     305.0133 
  227000    261.75951    17473.937     2924.207    27.682753    261.75951 
  228000    288.83887    8198.4316     2924.207    30.385438    288.83887 
  229000     293.9429    15699.883     2924.207    25.768582     293.9429 
  230000    298.05962    4398.5557     2924.207    21.764106    298.05962 
  231000    305.24091    14786.328     2924.207    28.059333    305.24091 
  232000    296.76904    9388.2366     2924.207    32.643522    296.76904 
  233000     288.5511    8467.9247     2924.207     26.79645     288.5511 
  234000    280.71362    20926.448     2924.207    28.713351    280.71362 
  235000    294.85331    8645.6192     2924.207    29.699911    294.85331 
  236000    286.44929    19331.143     2924.207    23.916204    286.44929 
  237000    297.96977    10867.459     2924.207    29.612437    297.96977 
  238000    284.24836    7822.6942     2924.207    34.517809    284.24836 
  239000    306.51647    16551.756     2924.207    29.632707    306.51647 
  240000    266.35915    17408.263     2924.207    32.722761    266.35915 
  241000    291.28368    6216.2807     2924.207    35.692329    291.28368 
  242000    293.21782    19295.456     2924.207     30.66083    293.21782 
  243000     282.4226    8896.2643     2924.207    26.009271     282.4226 
  244000     292.2224    6575.4346     2924.207    27.982303     292.2224 
  245000    310.92102    6167.1744     2924.207     28.06982    310.92102 
  246000    261.72525    16301.727     2924.207    26.874847    261.72525 
  247000    304.73204    6622.6117     2924.207    32.935718    304.73204 
  248000    276.90051    14765.999     2924.207    34.606439    276.90051 
  249000     290.1165    17470.576     2924.207    26.721594     290.1165 
  250000    300.82263    10345.063     2924.207    24.960986    300.82263 
  251000    280.56607    15107.956     2924.207    28.224611    280.56607 
  252000     281.0131    14164.324     2924.207    25.783505     281.0131 
  253000    281.34944    8470.7885     2924.207    26.317032    281.34944 
  254000      307.225    9260.8231     2924.207    32.172113      307.225 
  255000    301.33708    12971.875     2924.207    35.123646    301.33708 
  256000    276.67582    12799.758     2924.207    30.023719    276.67582 
  257000    264.77159    16226.254     2924.207    23.919577    264.77159 
  258000    289.85062    5024.4953     2924.207    23.494805    289.85062 
  259000    309.52366    7631.9451     2924.207    24.370388    309.52366 
  260000    289.47633    16794.577     2924.207    25.193119    289.47633 
  261000    293.17621    11682.386     2924.207    29.111284    293.17621 
  262000    298.12439    9974.3313     2924.207    30.799981    298.12439 
  263000    290.18439    10264.143     2924.207     28.94531    290.18439 
  264000    307.37508    13345.733     2924.207    27.493481    307.37508 
  265000    295.08434    4576.5443     2924.207    31.505997    295.08434 
  266000    287.22365    11477.435     2924.207    34.205197    287.22365 
  267000    272.87017    18459.799     2924.207     29.27148    272.87017 
  268000    295.11058    8932.8352     2924.207    24.007914    295.11058 
  269000    297.85277    4831.2993     2924.207    28.593599    297.85277 
  270000    276.59221    10776.046     2924.207    34.818947    276.59221 
  271000    281.22854    5329.0453     2924.207    31.262376    281.22854 
  272000    268.92866    16748.379     2924.207    24.376556    268.92866 
  273000     279.7882    14067.782     2924.207      20.4791     279.7882 
  274000    283.22867    12925.163     2924.207    21.377741    283.22867 
  275000    275.65755    12183.379     2924.207     26.11314    275.65755 
  276000    257.62472    20701.587     2924.207    28.406185    257.62472 
  277000    282.59321    8103.1528     2924.207    28.610752    282.59321 
  278000    256.91882     13295.58     2924.207    31.813704    256.91882 
  279000    292.10278    13985.988     2924.207    31.795868    292.10278 
  280000    249.12432    15209.611     2924.207    27.297798    249.12432 
  281000    309.27563    5450.0415     2924.207    23.612017    309.27563 
  282000    288.37288    7832.0609     2924.207     28.30963    288.37288 
  283000    278.33852    18928.872     2924.207    34.187249    278.33852 
  284000    286.67224    8837.5604     2924.207    32.803881    286.67224 
  285000    275.02146    15714.107     2924.207    25.519344    275.02146 
  286000    281.29855    6656.3246     2924.207    23.577442    281.29855 
  287000    280.77107    11621.787     2924.207    31.610046    280.77107 
  288000    300.63029    8842.1886     2924.207    34.501115    300.63029 
  289000    276.16209    12190.845     2924.207    25.100981    276.16209 
  290000    296.64064    2372.3633     2924.207    19.385674    296.64064 
  291000    284.99029    11630.685     2924.207    27.165264    284.99029 
  292000    280.16665    8086.6598     2924.207    31.650977    280.16665 
  293000    262.95198    9340.6301     2924.207    24.538757    262.95198 
  294000     279.7451    11265.115     2924.207    17.923763     279.7451 
  295000    279.22447    8167.2418     2924.207     22.85455    279.22447 
  296000    268.56944    10279.048     2924.207    31.141301    268.56944 
  297000    270.95101    14326.819     2924.207    28.670161    270.95101 
  298000    288.14562    3116.7906     2924.207    25.099842    288.14562 
  299000    270.29913    9884.4148     2924.207    26.901574    270.29913 
  300000    297.27704     5186.892     2924.207    25.934284    297.27704 
  301000    275.94968    14051.073     2924.207    22.502576    275.94968 
  302000    295.96714    9375.6577     2924.207    17.553449    295.96714 
  303000    288.04397    9587.3471     2924.207    21.788787    288.04397 
  304000    269.56543     21805.02     2924.207    29.142231    269.56543 
  305000    301.20688   -2720.1645     2924.207    27.930974    301.20688 
  306000    284.89753    13805.023     2924.207    25.808088    284.89753 
  307000    294.90551    12027.154     2924.207    24.964632    294.90551 
  308000    300.50182    6243.7146     2924.207     25.89257    300.50182 
  309000    293.70583    16163.893     2924.207    26.109571    293.70583 
  310000      296.307    10704.862     2924.207    22.939618      296.307 
  311000     295.4814    13702.619     2924.207    20.686272     295.4814 
  312000    295.00154    11410.151     2924.207    20.119362    295.00154 
  313000    272.10092     7116.013     2924.207    22.224864    272.10092 
  314000    292.10479    15213.931     2924.207    19.605391    292.10479 
  315000    266.40223    12633.543     2924.207    15.564463    266.40223 
  316000     280.0825    7693.5103     2924.207    16.631257     280.0825 
  317000    293.29165    6137.6649     2924.207     20.62888    293.29165 
  318000     274.8409    13343.637     2924.207    19.030155     274.8409 
  319000    297.87408    10739.242     2924.207     16.23896    297.87408 
  320000    288.64498    8492.6943     2924.207    17.148156    288.64498 
  321000    280.75482    18754.495     2924.207    20.145404    280.75482 
  322000    267.59351    11346.697     2924.207    23.403365    267.59351 
  323000    272.96381    8458.4535     2924.207    25.457756    272.96381 
  324000    284.43519     20003.02     2924.207    28.631115    284.43519 
  325000      281.679    7375.6679     2924.207    28.625026      281.679 
  326000    280.07573    12771.406     2924.207    24.834281    280.07573 
  327000    278.27742    8360.0328     2924.207    22.453799    278.27742 
  328000    282.28156    7649.8647     2924.207    20.779609    282.28156 
  329000    302.42339    4714.8161     2924.207    21.421764    302.42339 
  330000    294.10023    11322.587     2924.207    28.147682    294.10023 
  331000    296.55159    10231.088     2924.207    34.602802    296.55159 
  332000    312.22462    8940.2599     2924.207     32.62552    312.22462 
  333000    310.18597    6282.1844     2924.207    28.259194    310.18597 
  334000    297.64384    7082.8781     2924.207    28.199442    297.64384 
  335000    279.57583    10136.646     2924.207    29.048469    279.57583 
  336000    274.26137    11218.283     2924.207    29.404311    274.26137 
  337000    283.68002    13801.701     2924.207    30.015349    283.68002 
  338000    286.34164    12801.195     2924.207    31.038553    286.34164 
  339000    285.01183    13679.151     2924.207     32.13951    285.01183 
  340000    258.61235    572.85098     2924.207    34.080092    258.61235 
  341000    280.94506    15624.745     2924.207    28.374926    280.94506 
  342000    272.46035     7877.955     2924.207    22.736212    272.46035 
  343000    282.88325    11525.173     2924.207    25.042747    282.88325 
  344000    274.10381    7776.6136     2924.207    30.112175    274.10381 
  345000    291.85468     9645.663     2924.207    32.918498    291.85468 
  346000    289.17909    14767.849     2924.207    32.977048    289.17909 
  347000    282.40185    4308.5497     2924.207    33.483036    282.40185 
  348000    268.20427    12401.593     2924.207    33.134171    268.20427 
  349000    272.35391    13959.876     2924.207    30.793401    272.35391 
  350000    269.67117    3579.8758     2924.207    28.020828    269.67117 
  351000    293.70912    11585.666     2924.207    27.881981    293.70912 
  352000    260.69136    7382.3508     2924.207    27.460641    260.69136 
  353000    280.64424    11541.782     2924.207    27.152547    280.64424 
  354000    310.97855    4477.0626     2924.207    27.220353    310.97855 
  355000    257.08629    8824.5599     2924.207    28.035805    257.08629 
  356000    271.18084    16700.805     2924.207    29.645643    271.18084 
  357000    281.46514    6722.6168     2924.207    28.475074    281.46514 
  358000    268.17892    9544.8612     2924.207    28.713513    268.17892 
  359000    243.72129    20907.202     2924.207    31.091151    243.72129 
  360000     284.1022    6579.4081     2924.207    32.416317     284.1022 
  361000    266.65546    18171.424     2924.207    30.649388    266.65546 
  362000    297.41402    10560.567     2924.207    31.029296    297.41402 
  363000    262.25601    14176.825     2924.207    30.904321    262.25601 
  364000    284.05974    1769.6298     2924.207     29.12445    284.05974 
  365000    272.56797    14244.955     2924.207     29.38769    272.56797 
  366000    270.09694    7328.6856     2924.207    27.924606    270.09694 
  367000    285.39227    3602.9777     2924.207    27.841871    285.39227 
  368000    266.13646    14249.585     2924.207    31.492667    266.13646 
  369000    282.67231    6105.2759     2924.207    34.859363    282.67231 
  370000    287.16211    13137.125     2924.207    33.605787    287.16211 
  371000    269.77553    3435.0855     2924.207    30.415371    269.77553 
  372000    273.41998    12009.838     2924.207    28.016409    273.41998 
  373000    277.57129     10577.96     2924.207    28.531851    277.57129 
  374000     288.1523    12457.018     2924.207    33.387157     288.1523 
  375000    271.73366    8334.6756     2924.207    35.881914    271.73366 
  376000    285.38116    11315.658     2924.207    32.195324    285.38116 
  377000     273.7876    5762.2667     2924.207    27.402574     273.7876 
  378000    304.20561    14236.448     2924.207    26.683579    304.20561 
  379000    274.16796    4441.7041     2924.207      29.1122    274.16796 
  380000    274.60743    15404.015     2924.207    31.408971    274.60743 
  381000    284.09641    8637.6992     2924.207     31.85763    284.09641 
  382000    275.64113     7482.881     2924.207    30.215151    275.64113 
  383000    285.96123    10603.342     2924.207    28.631466    285.96123 
  384000    293.53597   -896.03973     2924.207    25.742953    293.53597 
  385000    296.61426    16810.352     2924.207    21.928362    296.61426 
  386000    277.29638    5569.5857     2924.207    22.150199    277.29638 
  387000    286.45287    9921.5083     2924.207    25.983068    286.45287 
  388000    277.63412   -718.92192     2924.207    29.490888    277.63412 
  389000    276.68528    18931.599     2924.207    27.596132    276.68528 
  390000    284.40863    8170.5947     2924.207    24.167005    284.40863 
  391000    271.45531    11064.512     2924.207    23.130321    271.45531 
  392000    276.44078    8438.2733     2924.207    26.440814    276.44078 
  393000    289.57279    9573.8861     2924.207    30.095448    289.57279 
  394000    281.63943    6467.5001     2924.207    31.583245    281.63943 
  395000    264.49286    14603.194     2924.207    27.138216    264.49286 
  396000     262.9629    4289.0137     2924.207    22.865132     262.9629 
  397000     281.7977    11292.294     2924.207    24.112515     281.7977 
  398000    279.05251    3163.4307     2924.207    29.705384    279.05251 
  399000    283.04932     10651.85     2924.207    32.744831    283.04932 
  400000     269.6274    10102.101     2924.207    29.490451     269.6274 
  401000    275.60709    9714.1933     2924.207    26.148662    275.60709 
  402000    291.96619    7845.1078     2924.207    24.572876    291.96619 
  403000    279.73506    13501.294     2924.207    28.079428    279.73506 
  404000    270.46232    7768.1823     2924.207     32.35312    270.46232 
  405000    277.00654    11461.255     2924.207    29.981769    277.00654 
  406000    268.20186    12536.074     2924.207    26.140209    268.20186 
  407000    283.14962     7510.862     2924.207    26.919918    283.14962 
  408000     277.3087    10130.976     2924.207    29.731278     277.3087 
  409000    286.48734    8184.7507     2924.207    30.382762    286.48734 
  410000    294.91419    6678.0174     2924.207    29.508078    294.91419 
  411000    277.46265    9243.2102     2924.207    30.080045    277.46265 
  412000     290.4457    7882.1665     2924.207    29.194643     290.4457 
  413000    287.80777     16449.67     2924.207    26.481253    287.80777 
  414000    286.56917    2403.0764     2924.207    24.093201    286.56917 
  415000    288.91086    13770.524     2924.207    25.285387    288.91086 
  416000    269.62424    6919.6119     2924.207    30.835231    269.62424 
  417000    267.42303    16846.776     2924.207      34.8184    267.42303 
  418000    282.89253    8411.6743     2924.207    34.745792    282.89253 
  419000    269.04725    8813.5274     2924.207    32.809106    269.04725 
  420000    257.95963    13079.483     2924.207    27.815347    257.95963 
  421000    294.60027    12385.174     2924.207    23.448517    294.60027 
  422000    270.14701    10823.403     2924.207    23.406877    270.14701 
  423000    252.35818     6931.152     2924.207    24.556074    252.35818 
  424000    267.36004    7597.5214     2924.207    28.936011    267.36004 
  425000     286.7793    5580.0586     2924.207    32.490721     286.7793 
  426000    239.54568    17245.748     2924.207    32.786804    239.54568 
  427000    258.50491    17183.496     2924.207    31.475652    258.50491 
  428000    269.78896    10153.387     2924.207    30.928474    269.78896 
  429000    263.62396     11305.79     2924.207    30.465404    263.62396 
  430000    274.72958    12807.869     2924.207    31.994878    274.72958 
  431000    254.58949    8581.5496     2924.207    31.764175    254.58949 
  432000    272.52557    14948.035     2924.207    26.900214    272.52557 
  433000    290.75392    11331.869     2924.207    22.399601    290.75392 
  434000    274.00072    11486.461     2924.207     21.79986    274.00072 
  435000    272.41219    7661.1473     2924.207    24.085568    272.41219 
  436000     255.9766    17884.321     2924.207    26.592596     255.9766 
  437000    263.86499    2722.5844     2924.207    30.855921    263.86499 
  438000    250.81312     19021.29     2924.207    33.010745    250.81312 
  439000    282.62173    7886.1071     2924.207    33.625395    282.62173 
  440000    256.94107    10293.711     2924.207    32.994709    256.94107 
  441000    271.57358    9413.4267     2924.207    30.403628    271.57358 
  442000    270.34229    13483.478     2924.207    26.770063    270.34229 
  443000    260.83565    11999.974     2924.207    24.950256    260.83565 
  444000    266.62032    9512.1031     2924.207    24.610299    266.62032 
  445000    262.34066    12820.318     2924.207    24.080527    262.34066 
  446000    241.12641      6260.51     2924.207    25.203254    241.12641 
  447000    267.22286    11048.985     2924.207    27.277093    267.22286 
  448000    260.84709    8964.9222     2924.207    29.036576    260.84709 
  449000    272.32117    8107.8622     2924.207    28.088451    272.32117 
  450000    269.47178    17568.517     2924.207    27.580658    269.47178 
  451000    280.35408    6794.9101     2924.207    27.633147    280.35408 
  452000    252.93434    13960.044     2924.207    28.970966    252.93434 
  453000    247.88691    13687.644     2924.207    30.336372    247.88691 
  454000      260.853    6763.2847     2924.207    32.722336      260.853 
  455000    274.96149    10481.768     2924.207    31.746655    274.96149 
  456000    256.84602     11634.19     2924.207    28.478754    256.84602 
  457000    253.65104    14296.841     2924.207    26.591951    253.65104 
  458000     268.7105    16631.952     2924.207    29.094813     268.7105 
  459000    276.33226    4807.7923     2924.207    30.973188    276.33226 
  460000     280.6276    13848.168     2924.207     31.81522     280.6276 
  461000    248.07528    12031.307     2924.207    31.998593    248.07528 
  462000    275.74617    5044.6041     2924.207    30.824905    275.74617 
  463000    256.72726    20959.819     2924.207    28.211423    256.72726 
  464000    264.67269    8810.4026     2924.207    25.739567    264.67269 
  465000    256.13718     4754.695     2924.207     24.52933    256.13718 
  466000    241.46863    18512.563     2924.207    26.661207    241.46863 
  467000    264.85692    3956.1917     2924.207    28.295449    264.85692 
  468000    254.47861    16998.725     2924.207    28.112745    254.47861 
  469000    263.91813    4458.4769     2924.207    27.713171    263.91813 
  470000    243.94592    14133.171     2924.207    31.149081    243.94592 
  471000     261.8334    17319.344     2924.207    31.540108     261.8334 
  472000    280.78934    3523.5338     2924.207    28.671395    280.78934 
  473000    240.05157    12182.294     2924.207    28.078807    240.05157 
  474000    276.42239    11052.873     2924.207    25.599768    276.42239 
  475000    266.88103    17368.825     2924.207    22.594132    266.88103 
  476000    245.26144    9701.2813     2924.207    23.815332    245.26144 
  477000    264.91209    12039.445     2924.207     26.73148    264.91209 
  478000    283.15442    12415.202     2924.207    29.013687    283.15442 
  479000    232.77871    10647.905     2924.207    32.579482    232.77871 
  480000    264.60891    9157.3833     2924.207    33.509692    264.60891 
  481000    263.05722    12398.368     2924.207    33.437428    263.05722 
  482000    292.81926    4152.2733     2924.207     30.41578    292.81926 
  483000    260.75159    11996.782     2924.207    25.773827    260.75159 
  484000    258.93757     9000.634     2924.207     22.02029    258.93757 
  485000    250.30592    7989.3551     2924.207    21.257857    250.30592 
  486000    276.73659    18807.821     2924.207    21.427138    276.73659 
  487000    242.64754    11240.732     2924.207    22.926066    242.64754 
  488000    274.95134    9025.6654     2924.207    26.461989    274.95134 
  489000    258.69206     15386.57     2924.207     30.57015    258.69206 
  490000    281.59264    4839.3791     2924.207     30.35585    281.59264 
  491000    284.74859    15105.112     2924.207      28.1765    284.74859 
  492000    265.07833    7992.4382     2924.207    27.602615    265.07833 
  493000    252.98362    9037.9911     2924.207    28.107936    252.98362 
  494000    274.24034    8458.4009     2924.207    26.120993    274.24034 
  495000     246.4894    18903.559     2924.207    22.218992     246.4894 
  496000     274.0228    2338.5337     2924.207    18.358627     274.0228 
  497000    256.56103    12865.504     2924.207     17.74019    256.56103 
  498000    270.32943    7301.7735     2924.207    20.591439    270.32943 
  499000    265.76236    11442.077     2924.207    23.406966    265.76236 
  500000    281.48904    9768.3908     2924.207    26.459289    281.48904 
  501000    269.39439    8042.9966     2924.207    27.984914    269.39439 
  502000    254.22334    7498.4475     2924.207    27.270649    254.22334 
  503000    270.55044    15386.377     2924.207    28.886447    270.55044 
  504000    259.57847    9535.1276     2924.207    29.883738    259.57847 
  505000    267.68023    13777.239     2924.207    29.151817    267.68023 
  506000    256.52887    7781.2496     2924.207    27.727659    256.52887 
  507000     279.3097     15992.88     2924.207    27.767665     279.3097 
  508000     264.4049    3256.1088     2924.207    29.928298     264.4049 
  509000    248.57099    15020.352     2924.207    30.730103    248.57099 
  510000    271.34676    9248.4594     2924.207    27.646479    271.34676 
  511000    252.97037    12165.597     2924.207     20.97755    252.97037 
  512000    251.14173    3545.3122     2924.207    15.941883    251.14173 
  513000    275.21299    13280.039     2924.207    17.469813    275.21299 
  514000    258.12213    13323.981     2924.207    24.395431    258.12213 
  515000     284.5137    8141.4982     2924.207    32.572609     284.5137 
  516000    273.69929    7803.4313     2924.207    35.744978    273.69929 
  517000    272.35826    3908.2208     2924.207     30.11481    272.35826 
  518000    269.98628    14011.065     2924.207    23.369753    269.98628 
  519000    266.58576    9430.5295     2924.207     22.59078    266.58576 
  520000    263.02362    4889.3924     2924.207    27.614222    263.02362 
  521000    276.96635    9355.3986     2924.207    32.552828    276.96635 
  522000    279.72417    10741.017     2924.207     33.45346    279.72417 
  523000    261.99865    4061.5798     2924.207    30.107677    261.99865 
  524000     269.1215    12705.675     2924.207    27.688405     269.1215 
  525000    255.63083    12363.956     2924.207     26.96418    255.63083 
  526000    273.17065    8468.6015     2924.207    28.019599    273.17065 
  527000    273.04392    16712.326     2924.207    30.562966    273.04392 
  528000    286.52629    5256.2393     2924.207    30.479094    286.52629 
  529000    263.35895    6624.4255     2924.207    27.766741    263.35895 
  530000    280.60154    9646.4931     2924.207    23.575213    280.60154 
  531000    272.79776    1539.5703     2924.207    21.428676    272.79776 
  532000    259.85568    10825.786     2924.207     22.24084    259.85568 
  533000    257.95314    14563.151     2924.207      25.1582    257.95314 
  534000    280.53132    7120.7628     2924.207    30.065423    280.53132 
  535000    253.59741    11991.402     2924.207      29.5969    253.59741 
  536000     264.6618     6265.405     2924.207    22.303102     264.6618 
  537000    280.15259    5178.8907     2924.207     15.18588    280.15259 
  538000    273.23166    11044.513     2924.207    14.168916    273.23166 
  539000    260.97732    12725.843     2924.207    19.722127    260.97732 
  540000    291.10855    5853.5771     2924.207    24.952769    291.10855 
  541000    271.14223    16105.148     2924.207    25.754631    271.14223 
  542000    266.27061    13282.547     2924.207    23.975688    266.27061 
  543000    254.07545     8963.248     2924.207    23.090829    254.07545 
  544000    280.44601    11928.613     2924.207    24.351544    280.44601 
  545000    277.06017    9354.7754     2924.207    25.817532    277.06017 
  546000    277.04209    11805.565     2924.207    25.099284    277.04209 
  547000    264.26236     5767.777     2924.207    24.153566    264.26236 
  548000    275.78703    11445.402     2924.207    24.664967    275.78703 
  549000    267.22892    4339.3043     2924.207    26.956849    267.22892 
  550000     272.4729    14600.598     2924.207    28.400414     272.4729 
  551000       259.01    8416.5604     2924.207    28.987614       259.01 
  552000    249.73349    15868.175     2924.207    27.460017    249.73349 
  553000    263.73435    6565.6742     2924.207    24.318966    263.73435 
  554000     282.7621    10821.212     2924.207    22.750786     282.7621 
  555000    260.44952    17848.653     2924.207    25.735219    260.44952 
  556000    259.26614    12104.614     2924.207    27.468346    259.26614 
  557000    285.46487     8662.337     2924.207    27.734315    285.46487 
  558000    237.69313    10834.271     2924.207      30.8486    237.69313 
  559000     252.2055    13532.356     2924.207    31.630909     252.2055 
  560000    253.52011    11330.123     2924.207      31.0259    253.52011 
  561000     259.2994    12390.027     2924.207    33.959492     259.2994 
  562000    263.32149    10580.167     2924.207    35.188626    263.32149 
  563000    240.95639    13270.437     2924.207    33.750205    240.95639 
  564000    278.43411    12947.375     2924.207    29.883548    278.43411 
  565000    264.26553     8627.888     2924.207    26.177434    264.26553 
  566000    276.75848    7739.9429     2924.207    23.383159    276.75848 
  567000    245.08506    19325.005     2924.207    24.311269    245.08506 
  568000    260.82917    5502.5278     2924.207    26.733314    260.82917 
  569000    241.99801    14273.772     2924.207     25.84756    241.99801 
  570000    267.38694    11779.498     2924.207    21.756162    267.38694 
  571000    265.58687    6110.8618     2924.207    18.544754    265.58687 
  572000    250.74649    12655.274     2924.207    17.380225    250.74649 
  573000    265.24985    10885.958     2924.207    18.210885    265.24985 
  574000    251.56664    11426.511     2924.207    22.634854    251.56664 
  575000    270.23218    14012.173     2924.207     28.79642    270.23218 
  576000    258.66525    8962.1681     2924.207    30.614297    258.66525 
  577000    264.94604    11367.803     2924.207    28.980496    264.94604 
  578000    272.14957    9014.4065     2924.207    27.296384    272.14957 
  579000    249.06965    15868.338     2924.207    27.744883    249.06965 
  580000     246.1649     7815.011     2924.207    27.244742     246.1649 
  581000    263.81567    6089.1947     2924.207    26.788453    263.81567 
  582000    243.97803    20297.522     2924.207    26.663032    243.97803 
  583000    278.82097    1636.2803     2924.207    26.876246    278.82097 
  584000    244.62045    14656.917     2924.207    27.077903    244.62045 
  585000    270.71292    12003.641     2924.207    24.272432    270.71292 
  586000     265.9233    8844.8511     2924.207    17.433981     265.9233 
  587000    257.88061    3430.2956     2924.207     14.61295    257.88061 
  588000    256.52623    16549.177     2924.207    18.646396    256.52623 
  589000     255.5194    8452.6863     2924.207    24.501036     255.5194 
  590000    266.96378    10372.189     2924.207    28.217751    266.96378 
  591000    267.74173    10923.174     2924.207    27.752591    267.74173 
  592000    277.53315    11963.178     2924.207    23.739644    277.53315 
  593000    254.10042    7426.5473     2924.207    20.336646    254.10042 
  594000    264.84312    14049.625     2924.207    19.418386    264.84312 
  595000    244.80477    12393.879     2924.207    21.516464    244.80477 
  596000     255.7696    11069.272     2924.207    23.085076     255.7696 
  597000    267.59625    13999.315     2924.207    25.720633    267.59625 
  598000    250.98396     5189.738     2924.207    28.538603    250.98396 
  599000     269.0272    13945.725     2924.207    30.539008     269.0272 
  600000    265.08657    11195.897     2924.207    29.542129    265.08657 
  601000     260.5372    4448.8786     2924.207     28.38102     260.5372 
  602000    258.84968    14063.671     2924.207    27.331075    258.84968 
  603000     260.3673    4346.2096     2924.207    26.545089     260.3673 
  604000    270.16523    13778.822     2924.207     27.12906    270.16523 
  605000    269.50652    4088.6221     2924.207    28.593296    269.50652 
  606000    251.93547    13415.454     2924.207    30.715374    251.93547 
  607000    258.70577    10592.706     2924.207    30.176345    258.70577 
  608000    263.70533    7202.0851     2924.207    27.587494    263.70533 
  609000    264.84479    16032.332     2924.207    27.209936    264.84479 
  610000    246.43988    9941.7052     2924.207    28.599219    246.43988 
  611000    286.10224    7775.5397     2924.207    25.688527    286.10224 
  612000    256.68958    7869.6758     2924.207    20.996659    256.68958 
  613000     257.3548    5901.1248     2924.207    19.057027     257.3548 
  614000    262.05647    11946.959     2924.207    22.542309    262.05647 
  615000    261.54662    5259.6986     2924.207    28.668252    261.54662 
  616000    262.23956    9394.7092     2924.207    33.612697    262.23956 
  617000    263.20228    14269.939     2924.207    32.287023    263.20228 
  618000    258.45072    4125.8702     2924.207    25.860639    258.45072 
  619000    273.34281    8704.8651     2924.207    18.118103    273.34281 
  620000    269.52911    7430.7957     2924.207    11.792606    269.52911 
  621000    274.30139    12340.437     2924.207    12.434315    274.30139 
  622000    264.56585    7935.4255     2924.207    20.155616    264.56585 
  623000    253.17063    11868.575     2924.207    25.456959    253.17063 
  624000    259.04306    10353.492     2924.207    27.983721    259.04306 
  625000    271.18525    7742.0186     2924.207    28.294675    271.18525 
  626000    280.26672     10445.51     2924.207      28.5372    280.26672 
  627000      261.092    10585.882     2924.207    29.571081      261.092 
  628000    277.71204     6662.723     2924.207    31.511741    277.71204 
  629000    286.65387    10587.393     2924.207    32.514885    286.65387 
  630000    270.38888    7413.7052     2924.207    31.875192    270.38888 
  631000    268.30881    11080.699     2924.207    30.460204    268.30881 
  632000     288.6245    11325.661     2924.207     26.18018     288.6245 
  633000    242.99399    13324.615     2924.207    21.338915    242.99399 
  634000    263.24205    10498.887     2924.207    17.909651    263.24205 
  635000    264.21845    5493.2044     2924.207    17.586317    264.21845 
  636000    275.04305    8352.3803     2924.207    18.156499    275.04305 
  637000    273.14329    11158.087     2924.207    19.865116    273.14329 
  638000    269.51872    7040.1242     2924.207    22.678123    269.51872 
  639000     274.2116    14500.361     2924.207    26.395961     274.2116 
  640000    272.87831    2309.7261     2924.207     30.81382    272.87831 
  641000    275.77558     17829.67     2924.207    31.231808    275.77558 
  642000    272.41471    10909.819     2924.207    27.710218    272.41471 
  643000    251.72778    7213.0353     2924.207    24.090096    251.72778 
  644000    268.01616    5898.1714     2924.207    22.170297    268.01616 
  645000    283.71535     7853.904     2924.207    23.991147    283.71535 
  646000    273.99111    2980.3957     2924.207    28.683876    273.99111 
  647000     258.4049    9641.1984     2924.207    31.525017     258.4049 
  648000    277.57794    11537.023     2924.207    33.209409    277.57794 
  649000    258.62873    6533.7257     2924.207     33.83835    258.62873 
  650000     278.5343    15896.789     2924.207    33.344099     278.5343 
  651000    273.04665    5729.7191     2924.207    32.447944    273.04665 
  652000    257.20179    4012.2349     2924.207    32.348254    257.20179 
  653000     278.3751     12371.03     2924.207    32.626307     278.3751 
  654000    262.23304    5922.2642     2924.207    33.077494    262.23304 
  655000    264.52211    6756.7461     2924.207    32.598283    264.52211 
  656000     278.9452    11113.551     2924.207    33.843867     278.9452 
  657000     254.7185    7519.3112     2924.207    35.391124     254.7185 
  658000    255.93227    10135.154     2924.207    33.229289    255.93227 
  659000    264.66174    6209.9697     2924.207    27.635135    264.66174 
  660000    263.32414    12544.645     2924.207     22.04739    263.32414 
  661000    247.53331    9149.3831     2924.207    21.915797    247.53331 
  662000    268.77322    7829.5998     2924.207    25.845944    268.77322 
  663000    265.79166    11041.949     2924.207    31.349626    265.79166 
  664000    274.56708    11465.603     2924.207    33.615707    274.56708 
  665000    265.05043    9414.8065     2924.207    31.439196    265.05043 
  666000    257.36276    12041.738     2924.207    30.150044    257.36276 
  667000    256.04086    7727.9881     2924.207    31.649161    256.04086 
  668000    254.25654    8626.0874     2924.207    33.466238    254.25654 
  669000    270.13513    13853.709     2924.207    34.041962    270.13513 
  670000    274.62389    1507.3497     2924.207    31.800454    274.62389 
  671000    280.17689   -1189.8998     2924.207    28.321297    280.17689 
  672000    280.47606    17774.429     2924.207    27.897739    280.47606 
  673000    263.13853    9321.3788     2924.207    30.490649    263.13853 
  674000    262.81092    5717.9069     2924.207    32.531165    262.81092 
  675000    270.03399    11342.507     2924.207    29.114188    270.03399 
  676000     273.3963    6724.5845     2924.207    25.934844     273.3963 
  677000     268.5698   -2926.0076     2924.207    25.785883     268.5698 
  678000    271.10512    14555.235     2924.207     29.35051    271.10512 
  679000    266.21123    11809.124     2924.207    31.916436    266.21123 
  680000    264.20291    7888.6111     2924.207    30.765527    264.20291 
  681000    289.97746   -214.08273     2924.207    28.652857    289.97746 
  682000    270.59188    4700.8479     2924.207    29.786419    270.59188 
  683000    261.24399    17535.637     2924.207    33.211527    261.24399 
  684000     263.2232    10781.351     2924.207    34.023497     263.2232 
  685000    266.70674   -582.27987     2924.207    31.907322    266.70674 
  686000    268.70136    14388.733     2924.207    29.461994    268.70136 
  687000    297.11155    11105.092     2924.207    28.898503    297.11155 
  688000    246.99555    7091.8125     2924.207    30.092327    246.99555 
  689000    263.10023    10629.757     2924.207    30.968541    263.10023 
  690000    277.76769    12897.618     2924.207    28.808746    277.76769 
  691000    269.04498    523.14745     2924.207    25.034739    269.04498 
  692000    235.47401    15869.754     2924.207    25.115208    235.47401 
  693000    268.57566    4562.2764     2924.207    28.618626    268.57566 
  694000    266.15398    2656.3206     2924.207    31.334927    266.15398 
  695000     274.2524    15326.633     2924.207    27.772938     274.2524 
  696000    265.76294    3647.0381     2924.207    24.828379    265.76294 
  697000    261.44289    15080.836     2924.207    25.699737    261.44289 
  698000    267.12175    6872.3224     2924.207    27.638445    267.12175 
  699000    268.24035    8730.7571     2924.207    27.820836    268.24035 
  700000    257.39148     7411.686     2924.207    25.948136    257.39148 
  701000       266.43    15786.074     2924.207    23.334517       266.43 
  702000    261.49658    5089.7373     2924.207    24.398391    261.49658 
  703000    261.23259    15151.655     2924.207    25.661363    261.23259 
  704000    256.96303    3005.2688     2924.207    26.588871    256.96303 
  705000    268.80223   -43.050761     2924.207    26.345152    268.80223 
  706000    272.84838    15639.137     2924.207    25.669753    272.84838 
  707000    252.53496    11760.172     2924.207    24.788072    252.53496 
  708000    269.17778    4955.3755     2924.207    23.704307    269.17778 
  709000    262.48294    10570.807     2924.207    25.636773    262.48294 
  710000    271.87717    8308.6142     2924.207    28.189635    271.87717 
  711000     258.3408    10168.366     2924.207    28.739076     258.3408 
  712000    261.29665    5290.4553     2924.207    29.011038    261.29665 
  713000    259.04941    9286.5216     2924.207    29.154168    259.04941 
  714000    268.89486    8090.4027     2924.207    28.445795    268.89486 
  715000    249.05346    10448.183     2924.207    27.216579    249.05346 
  716000     267.1124    14046.588     2924.207    27.259917     267.1124 
  717000    281.77509    7403.9214     2924.207    29.132203    281.77509 
  718000     257.0022    7957.6218     2924.207    30.798702     257.0022 
  719000    281.52217    8562.1158     2924.207    30.447029    281.52217 
  720000    285.04073    10569.854     2924.207    31.382326    285.04073 
  721000    251.46208    3370.4836     2924.207    32.143627    251.46208 
  722000    264.88515    5027.6797     2924.207    32.445811    264.88515 
  723000    272.00975    12709.729     2924.207    32.959366    272.00975 
  724000    283.48465    2052.4616     2924.207    33.055621    283.48465 
  725000    274.78873    11898.625     2924.207    31.755447    274.78873 
  726000    275.37323    5197.1927     2924.207     31.76599    275.37323 
  727000    260.45911    11802.258     2924.207    31.045543    260.45911 
  728000    286.01767    6190.7171     2924.207    31.271257    286.01767 
  729000    279.87414    238.77234     2924.207     33.64067    279.87414 
  730000    280.34114    19835.273     2924.207    35.546309    280.34114 
  731000    269.60335    2891.4569     2924.207     35.53174    269.60335 
  732000    277.22614    11898.311     2924.207     33.93394    277.22614 
  733000    291.24932    6404.6127     2924.207    33.469886    291.24932 
  734000    259.21395    4836.7575     2924.207     33.80548    259.21395 
  735000    274.71375     5918.687     2924.207    34.965979    274.71375 
  736000    271.48654    2867.9896     2924.207     35.76558    271.48654 
  737000    282.21754    11629.559     2924.207     36.03801    282.21754 
  738000    265.06961    7107.2392     2924.207    35.535237    265.06961 
  739000    269.44086     12249.28     2924.207    34.625447    269.44086 
  740000    264.99373    7188.0882     2924.207    33.741374    264.99373 
  741000    262.56665    9018.4396     2924.207    33.348717    262.56665 
  742000     263.9315    19016.386     2924.207    34.321963     263.9315 
  743000    254.53743    5717.2575     2924.207    35.592972    254.53743 
  744000    272.55092    1617.8461     2924.207    35.673694    272.55092 
  745000    253.15363     12604.25     2924.207    35.114556    253.15363 
  746000    278.89133    11510.316     2924.207     33.62159    278.89133 
  747000    261.29941    -1145.381     2924.207    32.621014    261.29941 
  748000    282.21381    13349.155     2924.207    32.062944    282.21381 
  749000    283.20979    7315.7556     2924.207    33.418775    283.20979 
  750000    259.31626    5544.0078     2924.207    34.721468    259.31626 
  751000    262.24032    15605.409     2924.207    34.209258    262.24032 
  752000    245.75247    10000.308     2924.207    32.972465    245.75247 
  753000      274.677    2110.4897     2924.207     31.62624      274.677 
  754000    273.16896    8334.4792     2924.207    31.707349    273.16896 
  755000    269.35409    6106.9284     2924.207    30.449419    269.35409 
  756000    279.15026    11752.268     2924.207    25.918131    279.15026 
  757000    253.70702    5897.8125     2924.207    21.236066    253.70702 
  758000    258.59655    2886.9955     2924.207    20.617113    258.59655 
  759000    261.34419    12768.089     2924.207    23.002479    261.34419 
  760000    240.28831    2635.6361     2924.207    26.590056    240.28831 
  761000    266.12699     9302.533     2924.207    28.026569    266.12699 
  762000    258.29597    12120.661     2924.207    28.577429    258.29597 
  763000    263.80173    6296.3702     2924.207    29.126771    263.80173 
  764000    256.20603    4991.5161     2924.207    27.103472    256.20603 
  765000    271.56441    17794.189     2924.207    24.203525    271.56441 
  766000    266.32144    6521.6705     2924.207    22.938685    266.32144 
  767000     266.4948    6653.1925     2924.207    22.926092     266.4948 
  768000    266.68971    11500.586     2924.207    26.829017    266.68971 
  769000    263.07608    11849.743     2924.207    30.256507    263.07608 
  770000    246.24979    3218.1648     2924.207    29.828895    246.24979 
  771000    261.98219    8914.1586     2924.207    25.602919    261.98219 
  772000    272.94734    7010.7178     2924.207    20.777832    272.94734 
  773000    269.01985    9818.0096     2924.207    21.089248    269.01985 
  774000    278.41789    9156.2614     2924.207    25.457987    278.41789 
  775000    248.27779    10984.007     2924.207    28.959088    248.27779 
  776000    254.28462    2940.3266     2924.207    27.248612    254.28462 
  777000    271.14297    3661.1241     2924.207       23.705    271.14297 
  778000    274.66319    15151.839     2924.207    22.491034    274.66319 
  779000    278.11606    3299.5662     2924.207    24.133433    278.11606 
  780000      272.091    6999.7298     2924.207    30.117414      272.091 
  781000    267.50962    13135.067     2924.207    35.082401    267.50962 
  782000    259.51307   -3562.1722     2924.207    35.281062    259.51307 
  783000    273.64329    13933.958     2924.207    31.436287    273.64329 
  784000    261.26085    8082.7265     2924.207    26.756933    261.26085 
  785000    259.44579    10062.869     2924.207    23.477043    259.44579 
  786000    259.29128    6982.8135     2924.207    24.325747    259.29128 
  787000    297.11744    6908.2642     2924.207    26.222346    297.11744 
  788000    266.61544    13676.567     2924.207    30.003315    266.61544 
  789000    253.80779    10305.398     2924.207      33.9923    253.80779 
  790000    265.44909    9205.2254     2924.207    33.924402    265.44909 
  791000    255.13857    3339.0355     2924.207     31.14989    255.13857 
  792000    284.48868    3069.7761     2924.207    26.894837    284.48868 
  793000    274.21992    11976.787     2924.207    23.942182    274.21992 
  794000    246.74513     6058.767     2924.207    22.627711    246.74513 
  795000    254.00727     8133.366     2924.207    23.977452    254.00727 
  796000     275.5962    10642.287     2924.207    26.215142     275.5962 
  797000    242.62818     3578.427     2924.207    27.556095    242.62818 
  798000    280.05321    933.71543     2924.207    28.048762    280.05321 
  799000    257.52896     12029.52     2924.207    29.374139    257.52896 
  800000    263.74534    9100.6725     2924.207    31.503665    263.74534 
  801000    253.72185     1404.633     2924.207    31.225178    253.72185 
  802000    259.20828    14402.398     2924.207    28.589603    259.20828 
  803000    270.75851    15060.674     2924.207    26.646313    270.75851 
  804000    262.32053    10590.175     2924.207    26.222675    262.32053 
  805000    263.99507     231.8009     2924.207    26.398704    263.99507 
  806000    274.43147    11706.057     2924.207    25.936215    274.43147 
  807000    275.28324    1069.5797     2924.207    25.892956    275.28324 
  808000    279.93196    3865.2582     2924.207    28.573423    279.93196 
  809000    275.69353    5843.6714     2924.207     30.46519    275.69353 
  810000    267.26298    362.86027     2924.207    28.873784    267.26298 
  811000    268.99313     14285.75     2924.207    26.312598    268.99313 
  812000    259.12145    15942.936     2924.207    27.476543    259.12145 
  813000    254.30624    3417.4566     2924.207     29.93777    254.30624 
  814000    263.85468    13710.394     2924.207    28.131241    263.85468 
  815000    271.01564    11726.751     2924.207     23.24872    271.01564 
  816000    260.45979   -54.674833     2924.207    20.231605    260.45979 
  817000    261.44755    15524.219     2924.207    20.309058    261.44755 
  818000    266.13572    3108.0583     2924.207    21.186851    266.13572 
  819000    265.40062    5635.9837     2924.207    24.082225    265.40062 
  820000    255.60951     7161.191     2924.207    25.323072    255.60951 
  821000    244.80342    4410.4507     2924.207    26.020436    244.80342 
  822000    264.47556       4623.5     2924.207    27.497709    264.47556 
  823000     267.4924    13936.753     2924.207    28.873723     267.4924 
  824000    257.70438    8527.6852     2924.207    30.716441    257.70438 
  825000    262.58401    2439.3216     2924.207    32.578201    262.58401 
  826000    255.51596    13165.494     2924.207    33.129619    255.51596 
  827000    273.35749    2553.2389     2924.207    32.516458    273.35749 
  828000    259.04365    11082.638     2924.207     29.82209    259.04365 
  829000     273.7709    12443.548     2924.207    24.082131     273.7709 
  830000    257.62528    3440.2868     2924.207    19.961186    257.62528 
  831000    271.88821    7472.9243     2924.207    18.297639    271.88821 
  832000    271.94589     7593.543     2924.207    20.563324    271.94589 
  833000    252.73999    8351.4135     2924.207    22.132881    252.73999 
  834000    260.62994    3066.7998     2924.207    23.478035    260.62994 
  835000    266.57262    8409.6145     2924.207    26.413269    266.57262 
  836000    279.95939    11430.331     2924.207    28.349578    279.95939 
  837000    264.25393    4523.6308     2924.207     28.54651    264.25393 
  838000    257.45443    7615.2368     2924.207    27.845574    257.45443 
  839000    278.45613    8061.3639     2924.207    24.378298    278.45613 
  840000    270.43919    9856.4565     2924.207      20.7201    270.43919 
  841000    271.42398    3391.2138     2924.207    18.303301    271.42398 
  842000    259.87596     16398.44     2924.207    16.694339    259.87596 
  843000    260.56471    617.06314     2924.207    19.890313    260.56471 
  844000    266.12782    8776.9558     2924.207    27.153198    266.12782 
  845000    252.71454    15705.237     2924.207    33.093164    252.71454 
  846000    272.52245    4298.6589     2924.207     34.31551    272.52245 
  847000    264.14728    11656.067     2924.207    32.061028    264.14728 
  848000    245.99073    5720.3255     2924.207    29.738539    245.99073 
  849000    252.97625     5294.562     2924.207    27.389751    252.97625 
  850000    250.28335    10049.584     2924.207    26.138902    250.28335 
  851000    256.75308     9102.926     2924.207     26.53273    256.75308 
  852000    270.52497    10352.553     2924.207    26.876342    270.52497 
  853000    286.09213    4577.0474     2924.207     28.06407    286.09213 
  854000    264.26864    5295.0911     2924.207    28.376378    264.26864 
  855000    263.83661    6632.7854     2924.207    28.931512    263.83661 
  856000    257.20374    6969.9025     2924.207    30.242937    257.20374 
  857000    263.01852    12724.489     2924.207    30.999771    263.01852 
  858000    251.45887    1076.3832     2924.207    29.157671    251.45887 
  859000    269.41938    3698.8432     2924.207    26.424319    269.41938 
  860000    281.79305    10463.682     2924.207    24.622413    281.79305 
  861000    251.68386    11120.091     2924.207    24.487227    251.68386 
  862000    269.24639    6594.7901     2924.207    26.170994    269.24639 
  863000    278.48415    13392.668     2924.207     25.79896    278.48415 
  864000    271.53132    880.91899     2924.207    23.920964    271.53132 
  865000    277.53048    7068.8887     2924.207     23.97048    277.53048 
  866000    272.35209    16725.761     2924.207    28.154483    272.35209 
  867000    275.03823   -6426.0717     2924.207    29.411509    275.03823 
  868000    263.81437     16113.77     2924.207    27.016726    263.81437 
  869000     269.2143    10102.784     2924.207    23.563498     269.2143 
  870000    255.53872    613.42826     2924.207    23.745508    255.53872 
  871000    262.17541    16568.419     2924.207    26.082834    262.17541 
  872000    260.02413    3477.8922     2924.207    29.850979    260.02413 
  873000    263.79091    8683.2785     2924.207    31.696689    263.79091 
  874000    269.32384    8232.7959     2924.207    32.499671    269.32384 
  875000    252.24205    8464.5256     2924.207    31.411731    252.24205 
  876000    277.07185    5501.4978     2924.207    27.295676    277.07185 
  877000    258.36033    10901.606     2924.207    23.762928    258.36033 
  878000    243.31887    4516.6985     2924.207    24.768293    243.31887 
  879000    259.04307    8906.4905     2924.207    29.712922    259.04307 
  880000    271.62411     10399.84     2924.207    33.535818    271.62411 
  881000     260.4166    9570.5939     2924.207    32.936362     260.4166 
  882000    259.04286    4462.0508     2924.207    28.174608    259.04286 
  883000     265.8913    3709.9794     2924.207    21.426199     265.8913 
  884000    278.26052    17089.345     2924.207    17.572726    278.26052 
  885000    278.44056    8052.3389     2924.207    19.269007    278.44056 
  886000    250.74585    3455.0903     2924.207    24.208591    250.74585 
  887000    268.11353    8544.0884     2924.207    28.388087    268.11353 
  888000    268.03704     6745.455     2924.207    26.906526    268.03704 
  889000    267.89092    7576.9435     2924.207    23.126941    267.89092 
  890000    276.09349    3448.0025     2924.207    22.754792    276.09349 
  891000    261.60634    7561.4611     2924.207    25.916326    261.60634 
  892000    267.97852    10899.278     2924.207    28.329335    267.97852 
  893000    243.21848    10876.673     2924.207    28.445194    243.21848 
  894000    264.10751    7679.5203     2924.207    27.406646    264.10751 
  895000    265.23955     4674.825     2924.207    25.965906    265.23955 
  896000    291.36748    8592.1812     2924.207    24.706019    291.36748 
  897000    263.00943    3887.4206     2924.207    22.684674    263.00943 
  898000    263.59481    3500.4923     2924.207    18.960314    263.59481 
  899000    260.69242     18050.58     2924.207    17.814897    260.69242 
  900000    260.07156   -25.811102     2924.207    21.604816    260.07156 
  901000    245.10924    6944.6394     2924.207    26.380637    245.10924 
  902000    274.03341    14777.726     2924.207    31.449645    274.03341 
  903000    265.30102    4312.8318     2924.207    32.776144    265.30102 
  904000    257.40839    1295.1813     2924.207    28.572314    257.40839 
  905000    276.46654    17208.431     2924.207     22.31098    276.46654 
  906000     257.6025    3406.0151     2924.207    19.598033     257.6025 
  907000    262.76189    13608.064     2924.207    22.015937    262.76189 
  908000    267.49739    8082.4399     2924.207    28.165454    267.49739 
  909000    279.41108    9088.6244     2924.207    31.437837    279.41108 
  910000    266.01163    2790.5491     2924.207    30.647742    266.01163 
  911000    262.13783    3083.5019     2924.207    26.678702    262.13783 
  912000    259.01891    14545.965     2924.207    23.021072    259.01891 
  913000    268.34917    11748.436     2924.207    22.346581    268.34917 
  914000    285.88982    4131.9701     2924.207    23.288503    285.88982 
  915000    267.91257    5580.5745     2924.207     25.58085    267.91257 
  916000    265.72817    11230.122     2924.207     27.40841    265.72817 
  917000     264.7679    3810.1074     2924.207     27.31524     264.7679 
  918000    274.40039     13705.76     2924.207    27.181649    274.40039 
  919000     261.9136      1411.45     2924.207    26.903848     261.9136 
  920000    277.00173    10527.514     2924.207    26.943992    277.00173 
  921000    264.23039    3768.7937     2924.207    27.597378    264.23039 
  922000    259.71887    2728.4062     2924.207    30.724031    259.71887 
  923000    245.32483    11862.113     2924.207    32.974135    245.32483 
  924000    259.16756    5612.9645     2924.207    31.940734    259.16756 
  925000    262.07279    10589.862     2924.207    27.831207    262.07279 
  926000    276.06217    5886.8589     2924.207    24.590115    276.06217 
  927000    271.09849    8316.5599     2924.207    23.673244    271.09849 
  928000    253.18468    11330.711     2924.207    25.625631    253.18468 
  929000    246.43383   -108.72042     2924.207    26.207447    246.43383 
  930000    274.62666    14818.768     2924.207    26.081676    274.62666 
  931000    268.93725    2399.2136     2924.207    27.393144    268.93725 
  932000    251.61031     9044.926     2924.207     28.20959    251.61031 
  933000    259.55915     9451.795     2924.207    29.892079    259.55915 
  934000    263.54239    11226.578     2924.207    30.120539    263.54239 
  935000    264.48575    6387.4722     2924.207    30.664668    264.48575 
  936000    294.00238    4694.5288     2924.207     30.15093    294.00238 
  937000    253.35368    7995.0036     2924.207    30.790214    253.35368 
  938000    269.67092    3263.4423     2924.207    29.826646    269.67092 
  939000    257.69448    12034.745     2924.207    26.475408    257.69448 
  940000    258.00999     4680.307     2924.207    23.111372    258.00999 
  941000    247.52522    5388.1578     2924.207    21.816503    247.52522 
  942000    268.77323    13998.164     2924.207    23.689576    268.77323 
  943000    270.49718    7096.8772     2924.207    26.081163    270.49718 
  944000    260.10357    3037.6683     2924.207    27.200698    260.10357 
  945000    241.96613    13285.485     2924.207    25.922121    241.96613 
  946000    264.42255    10029.755     2924.207    23.141871    264.42255 
  947000    259.91452    8793.9561     2924.207    19.941506    259.91452 
  948000    263.71594    8496.2065     2924.207    18.939372    263.71594 
  949000    255.67482    11630.518     2924.207    20.591885    255.67482 
  950000    254.28824    7932.6567     2924.207    22.666301    254.28824 
  951000    250.90188    7799.1863     2924.207    27.579767    250.90188 
  952000     269.0582    9914.3834     2924.207     31.79243     269.0582 
  953000    263.17213    10828.566     2924.207    34.170377    263.17213 
  954000    261.00549    11837.864     2924.207    31.728334    261.00549 
  955000    276.87895    8307.5055     2924.207    26.172323    276.87895 
  956000     280.4327   -122.50471     2924.207    19.184492     280.4327 
  957000    264.82813    7565.3044     2924.207    12.967204    264.82813 
  958000    284.73138    7514.8043     2924.207    11.001544    284.73138 
  959000    274.56366    12105.367     2924.207     13.66412    274.56366 
  960000    257.46376      8797.26     2924.207    18.802416    257.46376 
  961000    251.13566    10381.562     2924.207    23.077877    251.13566 
  962000    263.63679    13617.415     2924.207    27.935437    263.63679 
  963000    267.66421     8500.634     2924.207    28.864263    267.66421 
  964000    258.18431    10957.032     2924.207    25.326518    258.18431 
  965000    259.46408    4515.6294     2924.207    20.989304    259.46408 
  966000    249.85816    9008.9445     2924.207    18.192117    249.85816 
  967000    250.60981    7621.7748     2924.207    17.671535    250.60981 
  968000    257.16737    3854.1786     2924.207    18.934896    257.16737 
  969000    286.70077    10007.117     2924.207    21.382606    286.70077 
  970000    281.80185    8573.9313     2924.207    24.270144    281.80185 
  971000    262.60008    8563.3382     2924.207    25.965628    262.60008 
  972000    262.14211    10082.376     2924.207    25.740783    262.14211 
  973000    258.12043    2123.0186     2924.207    24.252298    258.12043 
  974000    257.84089    10666.596     2924.207     22.19496    257.84089 
  975000    263.21534    10400.891     2924.207    23.055304    263.21534 
  976000    256.98725     4319.519     2924.207    26.058781    256.98725 
  977000    274.39265    14009.725     2924.207     30.00572    274.39265 
  978000    247.00294    5266.0869     2924.207    31.988642    247.00294 
  979000    241.02487    8236.5748     2924.207    29.640425    241.02487 
  980000    275.39697     7095.531     2924.207     24.38383    275.39697 
  981000     243.0363    5632.8341     2924.207    22.540668     243.0363 
  982000    261.27601    14993.964     2924.207    25.386989    261.27601 
  983000    264.82518    5727.2926     2924.207    31.148698    264.82518 
  984000    252.22043    5930.3125     2924.207      34.9382    252.22043 
  985000    256.80278     12562.92     2924.207    34.457304    256.80278 
  986000    257.63814    3700.9149     2924.207    31.828503    257.63814 
  987000    258.03016     9700.061     2924.207    29.277722    258.03016 
  988000    250.80075     13928.68     2924.207    29.191385    250.80075 
  989000    242.80284    7226.4579     2924.207    30.226603    242.80284 
  990000    267.70935    2636.6227     2924.207    30.221037    267.70935 
  991000    259.37972    8173.4108     2924.207    29.142222    259.37972 
  992000    253.74281    12224.902     2924.207    28.879502    253.74281 
  993000    248.35798    6833.3518     2924.207    31.149178    248.35798 
  994000     245.1375    8569.2957     2924.207    32.825825     245.1375 
  995000    261.42358    10246.751     2924.207    30.818598    261.42358 
  996000    253.36477    2998.3678     2924.207    29.875909    253.36477 
  997000     263.3726    7325.2433     2924.207    28.183944     263.3726 
  998000    255.28232    15083.355     2924.207    27.041566    255.28232 
  999000    251.62424    4920.8933     2924.207    27.495109    251.62424 
 1000000    257.80905    6428.8704     2924.207    28.629801    257.80905 
 1001000    254.30871    10488.018     2924.207    29.208572    254.30871 
 1002000      267.122    5620.7719     2924.207    29.813133      267.122 
 1003000     274.4232    5380.3894     2924.207    30.138455     274.4232 
 1004000    294.38536    4884.0657     2924.207    30.160973    294.38536 
 1005000    248.59242     10414.69     2924.207    28.547496    248.59242 
 1006000    271.39909    10277.033     2924.207    27.270955    271.39909 
 1007000    253.20573    683.02216     2924.207     27.53109    253.20573 
 1008000    269.57129    8333.1424     2924.207    28.716191    269.57129 
 1009000    246.07432    6381.5897     2924.207    29.855128    246.07432 
 1010000    256.76261    11689.764     2924.207     30.26101    256.76261 
 1011000    266.86976    12689.081     2924.207    30.445517    266.86976 
 1012000    258.04576     7651.036     2924.207    32.187314    258.04576 
 1013000    272.08653     11717.56     2924.207    32.802777    272.08653 
 1014000    255.88306    9418.8703     2924.207    31.231509    255.88306 
 1015000      270.595    6643.7782     2924.207    28.107001      270.595 
 1016000    277.22739    7966.2651     2924.207    25.944321    277.22739 
 1017000    290.36187    8959.9335     2924.207    25.022137    290.36187 
 1018000     260.0585    7490.9672     2924.207    25.492034     260.0585 
 1019000     261.2381    10191.979     2924.207    27.885444     261.2381 
 1020000    256.54421   -947.91555     2924.207    29.176839    256.54421 
 1021000     254.6194    5603.4629     2924.207    28.665226     254.6194 
 1022000    264.17106    6232.3127     2924.207    26.139372    264.17106 
 1023000    258.68717    14013.322     2924.207    22.216078    258.68717 
 1024000    242.69927    4706.5505     2924.207    20.991706    242.69927 
 1025000    270.03829    6594.4375     2924.207    23.370785    270.03829 
 1026000    272.70081    13824.884     2924.207    25.824371    272.70081 
 1027000    252.17108    5904.1012     2924.207    29.445573    252.17108 
 1028000    264.28858   -1698.7845     2924.207    31.181171    264.28858 
 1029000    256.14388    13723.092     2924.207    28.898707    256.14388 
 1030000    257.24737    16695.144     2924.207    25.676464    257.24737 
 1031000    262.50203   -4434.3792     2924.207    24.066902    262.50203 
 1032000    254.30907    10277.538     2924.207    22.387408    254.30907 
 1033000    249.82514    17213.039     2924.207    22.487668    249.82514 
 1034000    264.03666   -355.72856     2924.207    19.681266    264.03666 
 1035000    265.24878    2905.2051     2924.207    11.688787    265.24878 
 1036000    278.22413    15392.086     2924.207    8.5152373    278.22413 
 1037000     237.3676    8270.5717     2924.207    12.411171     237.3676 
 1038000    261.92557    1901.1694     2924.207    19.293565    261.92557 
 1039000     242.2528    12282.467     2924.207    24.628533     242.2528 
 1040000     257.6989    10541.984     2924.207     26.34628     257.6989 
 1041000    250.16185    8669.8444     2924.207    26.780472    250.16185 
 1042000    262.88996    4449.5198     2924.207    26.981166    262.88996 
 1043000    238.13493     17086.17     2924.207     27.59782    238.13493 
 1044000    264.05172    871.70808     2924.207    29.365168    264.05172 
 1045000    280.74061    3701.1936     2924.207    33.448568    280.74061 
 1046000    270.60245    11468.748     2924.207    36.089179    270.60245 
 1047000    267.98678      13025.7     2924.207     35.24799    267.98678 
 1048000    272.81449    2048.2886     2924.207    32.832583    272.81449 
 1049000    252.07552    4229.4742     2924.207     29.48316    252.07552 
 1050000     278.9026    12983.087     2924.207    25.689361     278.9026 
 1051000    242.65831    9827.2831     2924.207    22.398583    242.65831 
 1052000    259.69649    6995.7924     2924.207    23.637411    259.69649 
 1053000    262.92523      6102.13     2924.207    23.887235    262.92523 
 1054000    268.01335    2118.6944     2924.207    25.190654    268.01335 
 1055000    258.19887    9093.8922     2924.207    28.643087    258.19887 
 1056000    258.04679     10976.01     2924.207    30.693625    258.04679 
 1057000    260.14287    6904.8936     2924.207    30.241981    260.14287 
 1058000    254.93229    2554.9618     2924.207     27.05238    254.93229 
 1059000    267.63821    7345.2269     2924.207    24.118714    267.63821 
 1060000    252.21435    11903.584     2924.207    24.538706    252.21435 
 1061000    263.98352    1557.1932     2924.207    27.653273    263.98352 
 1062000    252.55036    12785.038     2924.207    28.684816    252.55036 
 1063000    261.77804    10331.498     2924.207    30.714881    261.77804 
 1064000    253.24266    8547.5509     2924.207    32.040466    253.24266 
 1065000    249.77882    8710.9149     2924.207    32.547884    249.77882 
 1066000    262.42983    8427.0764     2924.207    32.252057    262.42983 
 1067000    261.75132    3391.3715     2924.207    32.955942    261.75132 
 1068000    265.24694    14421.711     2924.207    32.822715    265.24694 
 1069000    257.39962    4196.7136     2924.207    32.232807    257.39962 
 1070000    252.89354    8506.9283     2924.207    32.258276    252.89354 
 1071000    266.30024     9131.659     2924.207    33.313124    266.30024 
 1072000    254.83126    9940.1004     2924.207    33.770398    254.83126 
 1073000    266.77055    9149.1969     2924.207    35.306359    266.77055 
 1074000    245.35095    2553.9827     2924.207    33.555483    245.35095 
 1075000     257.5448    6558.0855     2924.207    31.407981     257.5448 
 1076000    252.45657    15845.578     2924.207    31.625123    252.45657 
 1077000    248.07372    7445.3284     2924.207    34.258284    248.07372 
 1078000     246.5712   -1167.4109     2924.207    34.687199     246.5712 
 1079000    243.04028    14601.819     2924.207     32.68637    243.04028 
 1080000    259.92131    6643.8034     2924.207    30.275565    259.92131 
 1081000    250.84004    5426.9107     2924.207    28.782902    250.84004 
 1082000     244.5812    13732.143     2924.207    28.064145     244.5812 
 1083000    255.50211    8252.4363     2924.207    29.058663    255.50211 
 1084000    240.76127     758.2735     2924.207    27.572367    240.76127 
 1085000    254.74879     6595.121     2924.207    25.698737    254.74879 
 1086000     261.8312    15398.932     2924.207    25.128639     261.8312 
 1087000    249.44068    8288.4893     2924.207    27.919304    249.44068 
 1088000    254.55274   -1543.5288     2924.207    31.279736    254.55274 
 1089000    272.63233    12137.815     2924.207    32.698387    272.63233 
 1090000    263.85134    9104.4802     2924.207    32.841759    263.85134 
 1091000    266.31101    8795.3994     2924.207    32.294291    266.31101 
 1092000    258.03419    4474.2183     2924.207    31.858278    258.03419 
 1093000    267.54597    12477.194     2924.207    30.268466    267.54597 
 1094000    264.63944    1735.5732     2924.207    27.798155    264.63944 
 1095000    248.28965    6564.9599     2924.207    25.095722    248.28965 
 1096000    241.46638    12166.664     2924.207    22.429022    241.46638 
 1097000    248.60978    877.42371     2924.207    22.155843    248.60978 
 1098000    260.69802    8767.4382     2924.207    24.379256    260.69802 
 1099000    253.25558    9093.5899     2924.207     25.99882    253.25558 
 1100000     244.3488     3738.973     2924.207    26.108299     244.3488 
 1101000    250.48915    7333.7081     2924.207    26.089306    250.48915 
 1102000    242.59249    9331.1284     2924.207    27.763241    242.59249 
 1103000    246.46371     5496.379     2924.207    30.451451    246.46371 
 1104000    260.83126    13029.647     2924.207    32.470603    260.83126 
 1105000    252.87967    4183.1038     2924.207    32.347382    252.87967 
 1106000    264.95349    4196.9906     2924.207    29.579976    264.95349 
 1107000    262.10911    10299.478     2924.207    26.636127    262.10911 
 1108000    258.80058      11347.3     2924.207    24.695035    258.80058 
 1109000    261.73764    9084.6979     2924.207    23.110775    261.73764 
 1110000    251.95668    295.62446     2924.207    24.842247    251.95668 
 1111000    241.80245    13476.723     2924.207    27.580343    241.80245 
 1112000     261.7364    3911.5018     2924.207    28.308276     261.7364 
 1113000    271.40633    1955.1868     2924.207    27.330437    271.40633 
 1114000    256.93569    13314.655     2924.207    27.349149    256.93569 
 1115000    262.78616    7135.5888     2924.207    28.063849    262.78616 
 1116000     260.2171    7932.4669     2924.207    28.231306     260.2171 
 1117000    258.12233      8748.08     2924.207    28.541132    258.12233 
 1118000    256.13949    8784.1695     2924.207    27.606258    256.13949 
 1119000    259.89061    3164.5121     2924.207    26.091654    259.89061 
 1120000    263.60128    10817.054     2924.207    26.280327    263.60128 
 1121000    254.98239    8016.7736     2924.207    26.650264    254.98239 
 1122000     259.9615    5729.1448     2924.207    25.192891     259.9615 
 1123000     243.6382    7582.2208     2924.207    22.991103     243.6382 
 1124000     270.4985    10748.592     2924.207    19.906765     270.4985 
 1125000    256.98924    6701.7652     2924.207    17.432032    256.98924 
 1126000    267.35001    8291.0612     2924.207    17.847479    267.35001 
 1127000    244.69158    6558.6496     2924.207    17.591447    244.69158 
 1128000    271.10663    7386.5592     2924.207    18.927906    271.10663 
 1129000    266.75837    6531.1386     2924.207    21.886749    266.75837 
 1130000    255.98968    8722.0442     2924.207    25.462753    255.98968 
 1131000    253.85939    5767.7946     2924.207    30.568662    253.85939 
 1132000    251.65974    11371.023     2924.207    31.482955    251.65974 
 1133000    268.80836    5252.3226     2924.207    29.716612    268.80836 
 1134000    249.80113    13440.742     2924.207    28.085319    249.80113 
 1135000    277.73844    11463.084     2924.207    26.921865    277.73844 
 1136000    261.66266    2164.8492     2924.207    26.498709    261.66266 
 1137000    278.49096    4655.8258     2924.207    28.003296    278.49096 
 1138000    264.85683    14139.121     2924.207    27.768928    264.85683 
 1139000    251.98619    8890.8579     2924.207    27.477506    251.98619 
 1140000    259.14873    4311.3596     2924.207    29.376568    259.14873 
 1141000    248.83294    6828.8341     2924.207    30.599803    248.83294 
 1142000    253.64635    14358.547     2924.207    30.566617    253.64635 
 1143000    271.48406    8464.5751     2924.207    31.103983    271.48406 
 1144000    258.59649    2768.0925     2924.207    29.668707    258.59649 
 1145000    238.99732     10836.03     2924.207    28.245244    238.99732 
 1146000    257.44184    8735.3585     2924.207    27.804084    257.44184 
 1147000    256.53995    5311.9311     2924.207    27.760138    256.53995 
 1148000    246.90339    8244.8657     2924.207    27.188277    246.90339 
 1149000    262.52895    3221.6452     2924.207    28.976848    262.52895 
 1150000    276.93953    11200.732     2924.207    30.684857    276.93953 
 1151000    248.72167    5631.2239     2924.207    31.209861    248.72167 
 1152000    264.49444   -2153.9148     2924.207    31.135731    264.49444 
 1153000    253.51991    8559.2665     2924.207    28.547592    253.51991 
 1154000     268.3333    10605.985     2924.207    27.620935     268.3333 
 1155000    263.01539       5884.1     2924.207    29.919041    263.01539 
 1156000    277.93557    9077.8377     2924.207    30.857662    277.93557 
 1157000    259.51267    6608.3847     2924.207    28.990612    259.51267 
 1158000    251.01725    14525.044     2924.207    28.130951    251.01725 
 1159000     255.1368    8212.4459     2924.207    29.039486     255.1368 
 1160000    260.61868   -2755.2763     2924.207    30.062889    260.61868 
 1161000    267.40355    15195.278     2924.207    30.582493    267.40355 
 1162000    253.38508    8314.1897     2924.207    29.711417    253.38508 
 1163000     262.0749     2272.324     2924.207    27.745846     262.0749 
 1164000    257.40788    10931.622     2924.207    25.417457    257.40788 
 1165000    268.26846    10844.297     2924.207    22.055541    268.26846 
 1166000    262.27554    8645.5296     2924.207    21.758157    262.27554 
 1167000    250.46742    9139.0862     2924.207    21.048494    250.46742 
 1168000    261.00908    2238.5614     2924.207    20.211491    261.00908 
 1169000    262.61022      9453.38     2924.207    19.674521    262.61022 
 1170000    266.05662    12542.541     2924.207    20.421207    266.05662 
 1171000    260.57615    5049.3565     2924.207    22.900809    260.57615 
 1172000    269.14252    8185.8055     2924.207    25.160512    269.14252 
 1173000    268.00643    4784.4865     2924.207    26.671494    268.00643 
 1174000    266.25299    8769.9413     2924.207    26.441289    266.25299 
 1175000    273.41052    8650.1108     2924.207    23.881079    273.41052 
 1176000    258.07168    720.64913     2924.207    20.599951    258.07168 
 1177000    250.91411      13584.5     2924.207    17.838744    250.91411 
 1178000    246.85549    7877.4853     2924.207    18.677382    246.85549 
 1179000    263.24256   -1598.1516     2924.207    22.650309    263.24256 
 1180000    254.56451    15244.228     2924.207    27.895374    254.56451 
 1181000    266.88221    12850.748     2924.207    30.039634    266.88221 
 1182000    255.63934    1773.4945     2924.207    31.077789    255.63934 
 1183000    264.10165    13196.948     2924.207    30.306516    264.10165 
 1184000    257.12289     12279.57     2924.207    28.541745    257.12289 
 1185000    243.33509    3145.3074     2924.207     25.28175    243.33509 
 1186000    249.39873    11110.622     2924.207    22.356566    249.39873 
 1187000     260.7374    10071.136     2924.207    20.052303     260.7374 
 1188000    241.56352    14188.696     2924.207    21.741034    241.56352 
 1189000     232.2861    2090.9404     2924.207    25.253379     232.2861 
 1190000      245.075    8111.0219     2924.207    27.929508      245.075 
 1191000    254.94577    4839.4246     2924.207    29.538618    254.94577 
 1192000    260.46234    12160.304     2924.207     30.41096    260.46234 
 1193000    257.90608    707.07534     2924.207    31.398922    257.90608 
 1194000    234.62806    7872.7874     2924.207    30.575989    234.62806 
 1195000    266.77302    13756.596     2924.207    29.987297    266.77302 
 1196000    256.42098    2076.5746     2924.207    29.556181    256.42098 
 1197000    257.28153     2162.995     2924.207    29.015556    257.28153 
 1198000    242.54004    12737.311     2924.207    28.006928    242.54004 
 1199000    242.03796    9514.9873     2924.207     25.22998    242.03796 
 1200000    254.89534    7289.6336     2924.207    25.091569    254.89534 
 1201000    251.08468    13090.505     2924.207    26.998706    251.08468 
 1202000    267.84187    7387.6721     2924.207    28.318463    267.84187 
 1203000     237.5453    815.07455     2924.207    28.728109     237.5453 
 1204000    252.75798    8994.9697     2924.207    27.502077    252.75798 
 1205000    270.44515    4552.3439     2924.207    26.997761    270.44515 
 1206000    248.71842     8551.034     2924.207    25.420869    248.71842 
 1207000     268.8491     7502.587     2924.207    23.942044     268.8491 
 1208000    240.53849    2419.7611     2924.207    23.025294    240.53849 
 1209000    276.16364    8354.1086     2924.207     25.50993    276.16364 
 1210000    250.26267       8107.5     2924.207    26.499974    250.26267 
 1211000    240.55842    11923.611     2924.207    27.432936    240.55842 
 1212000    242.86862     10422.41     2924.207    27.791417    242.86862 
 1213000    265.39258    601.75875     2924.207    27.228755    265.39258 
 1214000    266.63272    4005.8475     2924.207    26.700065    266.63272 
 1215000    240.74307    5857.0028     2924.207     25.48462    240.74307 
 1216000     263.7734    7061.7222     2924.207    25.875936     263.7734 
 1217000    260.32266    8034.9083     2924.207    28.070321    260.32266 
 1218000    239.22394    3891.6868     2924.207    26.231123    239.22394 
 1219000    268.40648     8937.253     2924.207    23.366393    268.40648 
 1220000    249.19372    15284.137     2924.207    24.656037    249.19372 
 1221000    242.89062    7781.8388     2924.207    27.289578    242.89062 
 1222000    263.82377    1556.7675     2924.207    27.769663    263.82377 
 1223000    243.26455    9029.5441     2924.207    28.070784    243.26455 
 1224000    256.46597    8755.8299     2924.207    27.442423    256.46597 
 1225000    258.00946    7729.5466     2924.207    27.944704    258.00946 
 1226000    265.19639    4698.0955     2924.207     28.40071    265.19639 
 1227000    251.22772    9738.4402     2924.207    28.890446    251.22772 
 1228000       253.37    5231.6823     2924.207    29.598868       253.37 
 1229000    252.89768    8964.9541     2924.207    29.681055    252.89768 
 1230000    250.64704    10123.194     2924.207    31.679844    250.64704 
 1231000    259.96277    4038.0236     2924.207    34.065573    259.96277 
 1232000    246.92609    12789.684     2924.207    34.691544    246.92609 
 1233000    247.43631    3651.8723     2924.207    33.266686    247.43631 
 1234000    265.39804    4373.1653     2924.207    31.270958    265.39804 
 1235000    256.32821    11112.986     2924.207    29.711989    256.32821 
 1236000    264.38903    6573.3858     2924.207    30.733044    264.38903 
 1237000    238.99388    12523.193     2924.207    32.208169    238.99388 
 1238000    253.55596    8727.7406     2924.207     31.38466    253.55596 
 1239000    245.64614    7948.2511     2924.207    29.174983    245.64614 
 1240000     258.7734    6273.0883     2924.207    26.768988     258.7734 
 1241000     276.0045    6032.9777     2924.207    24.396126     276.0045 
 1242000    254.54747    9166.4197     2924.207    24.508358    254.54747 
 1243000    254.95621    5818.9516     2924.207    23.620264    254.95621 
 1244000     257.4392    9714.6907     2924.207    23.503318     257.4392 
 1245000    243.75251     9563.876     2924.207    25.509447    243.75251 
 1246000    254.56394    3033.7108     2924.207     27.07173    254.56394 
 1247000    251.49505    10856.636     2924.207     28.44276    251.49505 
 1248000    255.98565    5303.4755     2924.207    27.281111    255.98565 
 1249000    255.94018    6198.9875     2924.207    23.797899    255.94018 
 1250000    251.19676    9020.2959     2924.207    20.315508    251.19676 
 1251000    251.58726    16517.532     2924.207    20.857682    251.58726 
 1252000    256.66506    4499.7987     2924.207    21.697483    256.66506 
 1253000    263.80277    4728.4108     2924.207    21.247256    263.80277 
[...]
 1287000    240.47254    9098.4272     2924.207    28.098591    240.47254 
 1288000    253.12269    6143.2363     2924.207    31.737158    253.12269 
 1289000    259.19568    7852.2971     2924.207    34.136549    259.19568 
 1290000    272.06295    9583.4079     2924.207    34.304952    272.06295 
 1291000    251.97348    11242.529     2924.207    31.664356    251.97348 
 1292000    271.73125    4724.3475     2924.207    28.459578    271.73125 
 1293000    262.54087    2681.0977     2924.207     25.85297    262.54087 
 1294000     247.7265    8484.3648     2924.207    22.349298     247.7265 
 1295000    263.53301    4679.3276     2924.207    19.351405    263.53301 
 1296000    260.09693    11422.346     2924.207    19.590006    260.09693 
 1297000    261.18349     14081.89     2924.207    21.678376    261.18349 
 1298000     252.1423    2964.1656     2924.207     24.53471     252.1423 
 1299000    271.79536    7131.0655     2924.207     25.76631    271.79536 
 1300000    260.92757    10819.264     2924.207    28.409572    260.92757 
 1301000    267.16395    1144.4382     2924.207    30.181666    267.16395 
 1302000    248.55414    6955.5209     2924.207    29.935967    248.55414 
 1303000    254.75771    15245.351     2924.207    26.741619    254.75771 
 1304000    243.07553    3247.3595     2924.207    22.943814    243.07553 
 1305000    246.39589     10906.82     2924.207    22.578614    246.39589 
 1306000    250.59215    7105.5221     2924.207    22.505742    250.59215 
 1307000    258.27555    9995.0391     2924.207    24.549275    258.27555 
 1308000    255.37282     3207.318     2924.207    26.664933    255.37282 
 1309000    262.14656    8981.1878     2924.207    28.848032    262.14656 
 1310000    264.51147    7062.4291     2924.207    30.758267    264.51147 
 1311000    269.97307    9148.4726     2924.207    32.063566    269.97307 
 1312000    255.62955    8094.0184     2924.207    31.217568    255.62955 
 1313000    262.15903    11526.421     2924.207    30.731917    262.15903 
 1314000    262.15293    7288.4427     2924.207    29.060082    262.15293 
 1315000    253.99825    6857.2339     2924.207    28.764513    253.99825 
 1316000    253.31764     2099.383     2924.207    29.691353    253.31764 
 1317000    272.19728    10864.476     2924.207    30.789703    272.19728 
 1318000    245.55598    9705.8957     2924.207    33.965985    245.55598 
 1319000    258.18811    9453.4287     2924.207    35.303134    258.18811 
 1320000    247.59615    5426.9322     2924.207    35.743862    247.59615 
 1321000    245.52271    2861.7802     2924.207    34.173954    245.52271 
 1322000    264.86982    12746.843     2924.207    29.992955    264.86982 
 1323000    264.93028    1811.0274     2924.207     26.13076    264.93028 
 1324000     255.5269    7657.2771     2924.207    23.482107     255.5269 
 1325000    257.50851    13017.262     2924.207    22.481322    257.50851 
 1326000    259.45934    3259.9097     2924.207    22.957277    259.45934 
 1327000    258.28026     3305.557     2924.207    22.768911    258.28026 
 1328000    259.23849    14334.903     2924.207    21.978868    259.23849 
 1329000    264.37476    9199.1628     2924.207    22.571045    264.37476 
 1330000    256.60963    7971.5922     2924.207    24.944394    256.60963 
 1331000    248.74011    10559.933     2924.207    28.212684    248.74011 
 1332000    249.03691    6916.3688     2924.207    28.304912    249.03691 
 1333000    247.40468     6345.403     2924.207    29.891115    247.40468 
 1334000    260.63632    3484.5738     2924.207    30.573519    260.63632 
 1335000    271.40406    8162.5229     2924.207    31.281773    271.40406 
 1336000    264.64441    10413.884     2924.207    32.230947    264.64441 
 1337000    251.96916    4318.7466     2924.207    32.421962    251.96916 
 1338000     255.7054    6698.1203     2924.207    33.123107     255.7054 
 1339000     241.4449    7096.7455     2924.207    34.055599     241.4449 
 1340000    259.84783    6805.7736     2924.207    33.963061    259.84783 
 1341000    261.76428    11801.726     2924.207    32.460803    261.76428 
 1342000    254.05747    1507.9286     2924.207    31.340821    254.05747 
 1343000    239.19863    11526.965     2924.207    30.521388    239.19863 
 1344000    265.44609    5028.8611     2924.207    27.926314    265.44609 
 1345000    262.19183    5770.6494     2924.207    26.015071    262.19183 
 1346000    245.57131    7195.2317     2924.207    22.228373    245.57131 
 1347000    255.31041    4873.4363     2924.207    18.508106    255.31041 
 1348000    266.51376    11404.263     2924.207    17.909379    266.51376 
 1349000    255.66017    16314.205     2924.207    20.195429    255.66017 
 1350000     250.9573   -626.92979     2924.207    22.906827     250.9573 
 1351000     259.5561    3123.6941     2924.207    24.648686     259.5561 
 1352000    253.98863     18079.26     2924.207    24.717296    253.98863 
 1353000    269.36146    5890.1065     2924.207    25.912005    269.36146 
 1354000    270.44213    9401.5448     2924.207    25.211653    270.44213 
 1355000     241.4634    2590.6584     2924.207     23.62441     241.4634 
 1356000    261.08417    12251.586     2924.207    22.895956    261.08417 
 1357000    255.49159     8199.927     2924.207    23.839069    255.49159 
 1358000    257.15352    2320.2523     2924.207    25.158898    257.15352 
 1359000    253.37398    6698.0822     2924.207    26.094948    253.37398 
 1360000    253.02623    12470.311     2924.207    28.740127    253.02623 
 1361000    250.11863    7053.9909     2924.207    29.886395    250.11863 
 1362000    258.77001    4629.4141     2924.207    30.150755    258.77001 
 1363000    259.88332    10935.507     2924.207    30.467874    259.88332 
 1364000    265.24608    8737.8504     2924.207    29.422114    265.24608 
 1365000    251.44716    4128.7354     2924.207    27.407191    251.44716 
 1366000    262.95267    6366.7382     2924.207    25.737825    262.95267 
 1367000    252.23445    10027.756     2924.207    23.037751    252.23445 
 1368000    260.90354   -3088.1144     2924.207    19.753858    260.90354 
 1369000    266.88568    11171.703     2924.207    16.543105    266.88568 
 1370000    258.00834    12034.654     2924.207    16.367463    258.00834 
 1371000     252.7341   -5641.5127     2924.207    20.449005     252.7341 
 1372000     250.1686    7752.6818     2924.207    26.112156     250.1686 
 1373000    251.05114    16255.853     2924.207    30.598577    251.05114 
 1374000    240.09757    7051.2988     2924.207    32.464611    240.09757 
 1375000    243.50746   -2919.9457     2924.207    32.600635    243.50746 
 1376000    252.61192    12098.547     2924.207    30.694321    252.61192 
 1377000    259.65424    14613.997     2924.207    27.978841    259.65424 
 1378000    253.46024   -3518.4687     2924.207    26.233757    253.46024 
 1379000    276.12361    6133.4929     2924.207     27.01938    276.12361 
 1380000    264.09236    14957.448     2924.207    27.180172    264.09236 
 1381000    245.11658    3788.9913     2924.207    28.442142    245.11658 
 1382000    244.57405    7907.6981     2924.207    29.651699    244.57405 
 1383000     260.0607    8624.6014     2924.207    31.631893     260.0607 
 1384000    258.91099     3979.291     2924.207    32.944412    258.91099 
 1385000    267.22016    11221.192     2924.207    31.207286    267.22016 
 1386000    265.65933    14149.477     2924.207    27.298868    265.65933 
 1387000    268.01716    5628.2149     2924.207    23.661371    268.01716 
 1388000    263.09508    1709.6715     2924.207    22.036294    263.09508 
 1389000    248.47414    15080.887     2924.207    23.129365    248.47414 
 1390000     262.8235   -1223.7239     2924.207    23.289032     262.8235 
 1391000    237.42781    7631.6504     2924.207     24.87973    237.42781 
 1392000     258.6801    12681.695     2924.207    27.130196     258.6801 
 1393000    275.51449     10212.04     2924.207    30.128885    275.51449 
 1394000     256.4364   -91.820716     2924.207    31.780327     256.4364 
 1395000    257.85908    5398.4717     2924.207    32.553663    257.85908 
 1396000    260.39971    13310.944     2924.207    32.101477    260.39971 
 1397000    259.15848    6358.0113     2924.207    30.523435    259.15848 
 1398000    256.43721    6629.8729     2924.207    27.440728    256.43721 
 1399000    260.06793    12850.041     2924.207    24.732379    260.06793 
 1400000      259.315    9302.9262     2924.207    25.088812      259.315 
 1401000    252.96572    4606.3416     2924.207    28.004061    252.96572 
 1402000    256.45625    9864.1873     2924.207    30.493575    256.45625 
 1403000    266.62457     4684.377     2924.207    31.358999    266.62457 
 1404000    257.16362    4878.2044     2924.207    31.297594    257.16362 
 1405000    261.79055    4809.9886     2924.207    30.010128    261.79055 
 1406000    246.56126    4832.4234     2924.207    29.065259    246.56126 
 1407000    247.64108    8374.7073     2924.207    31.016687    247.64108 
 1408000    241.53351    6017.8974     2924.207    33.156762    241.53351 
 1409000    250.09442    2951.6526     2924.207    33.552817    250.09442 
 1410000    261.21512    6169.3463     2924.207     32.40849    261.21512 
 1411000    262.90457     7033.852     2924.207    29.661553    262.90457 
 1412000     250.3817     9189.805     2924.207    27.834852     250.3817 
 1413000    243.39314    3689.5287     2924.207    26.574959    243.39314 
 1414000    248.07143    11141.576     2924.207    25.806329    248.07143 
 1415000    256.22175    5867.2051     2924.207    24.825205    256.22175 
 1416000    263.53287   -2100.7969     2924.207    23.066723    263.53287 
 1417000    268.03599    15433.809     2924.207    22.295349    268.03599 
 1418000     254.8946    7824.4474     2924.207    22.430067     254.8946 
 1419000    265.31134    2449.4378     2924.207    24.334733    265.31134 
 1420000    261.36372    3050.8066     2924.207    27.177586    261.36372 
 1421000    265.11715    12219.459     2924.207    27.502056    265.11715 
 1422000    238.33837    12318.411     2924.207    26.389751    238.33837 
 1423000    227.19824     1383.727     2924.207    25.699824    227.19824 
 1424000    252.37111    3402.9348     2924.207    24.451557    252.37111 
 1425000    256.50688    15998.529     2924.207    25.666663    256.50688 
 1426000    259.20676    3270.9762     2924.207    27.968626    259.20676 
 1427000    255.03041    3690.2808     2924.207    28.352783    255.03041 
 1428000    244.38488      11398.6     2924.207    28.570614    244.38488 
 1429000    250.32759    5100.6207     2924.207    28.307579    250.32759 
 1430000    268.79606    8426.3581     2924.207    27.978169    268.79606 
 1431000    256.92973    3769.6666     2924.207    28.901637    256.92973 
 1432000    247.58442    6001.1097     2924.207    28.861901    247.58442 
 1433000    270.35741    9718.2788     2924.207    28.656767    270.35741 
 1434000    253.77328    5819.3391     2924.207    25.533099    253.77328 
 1435000    247.05426    5062.1664     2924.207    23.743676    247.05426 
 1436000    242.86602    7779.0447     2924.207    23.626139    242.86602 
 1437000     254.0749    8815.6617     2924.207    23.289406     254.0749 
 1438000    254.86974     7191.766     2924.207    22.580367    254.86974 
 1439000    261.39601    1304.5843     2924.207    23.512459    261.39601 
 1440000    246.90959    5351.1351     2924.207    24.704765    246.90959 
 1441000    256.99159    5289.5832     2924.207    25.099098    256.99159 
 1442000    258.85062    10850.806     2924.207    25.239667    258.85062 
 1443000     264.8826    4775.0384     2924.207    25.458936     264.8826 
 1444000    263.50627     4721.694     2924.207    23.646576    263.50627 
 1445000    246.15138    9218.7747     2924.207    22.142945    246.15138 
 1446000    264.97289    9220.7441     2924.207    23.154225    264.97289 
 1447000    254.01101    4846.4252     2924.207    22.332691    254.01101 
 1448000    256.25721    6315.7973     2924.207     22.79096    256.25721 
 1449000    252.23575    8785.2101     2924.207    24.302414    252.23575 
 1450000    250.36676    3333.7351     2924.207    25.471577    250.36676 
 1451000     257.5922    7182.7645     2924.207    25.541145     257.5922 
 1452000    251.32466     9396.745     2924.207    24.133385    251.32466 
 1453000    262.50094    5594.7118     2924.207    22.025664    262.50094 
 1454000    245.81059    10450.484     2924.207    22.818285    245.81059 
 1455000    246.19972    2293.9754     2924.207    25.490519    246.19972 
 1456000    246.90241    15757.725     2924.207    24.929247    246.90241 
 1457000    251.20095    7741.9862     2924.207    24.415262    251.20095 
 1458000    236.26498    2987.0978     2924.207    25.327615    236.26498 
 1459000    252.59395    4416.6711     2924.207    25.808071    252.59395 
 1460000     244.5764    12969.708     2924.207    26.194161     244.5764 
 1461000     275.8867    8685.9522     2924.207    26.970496     275.8867 
 1462000    249.38787    2207.9147     2924.207    28.513394    249.38787 
 1463000    248.13781    6157.7889     2924.207    29.341077    248.13781 
 1464000     261.9335    9143.0323     2924.207    30.727399     261.9335 
 1465000    253.28896    11269.218     2924.207     31.72307    253.28896 
 1466000    242.69895    5126.9369     2924.207    31.822114    242.69895 
 1467000    249.14881    4620.7837     2924.207    31.172841    249.14881 
 1468000    270.87172    12629.431     2924.207    31.057615    270.87172 
 1469000    262.74247    4967.2702     2924.207     31.26523    262.74247 
 1470000    239.69106   -6277.7151     2924.207    32.320414    239.69106 
 1471000    241.94017    2696.2447     2924.207    33.931493    241.94017 
 1472000    250.70514    15169.973     2924.207    35.089831    250.70514 
 1473000    266.18929    9107.5719     2924.207    35.130178    266.18929 
 1474000    256.20804   -2846.4275     2924.207    34.614656    256.20804 
 1475000    266.95168    12151.889     2924.207    33.655546    266.95168 
 1476000     254.4829     14563.46     2924.207    31.953243     254.4829 
 1477000    262.12855   -6995.1519     2924.207     30.22926    262.12855 
 1478000      252.092    10321.126     2924.207    30.608738      252.092 
 1479000    261.05473    14769.603     2924.207    32.793319    261.05473 
 1480000    249.96268     1872.487     2924.207    34.603348    249.96268 
 1481000    238.45313    3181.8537     2924.207    34.461373    238.45313 
 1482000    246.07486    13309.658     2924.207     33.77936    246.07486 
 1483000    263.08929    7434.5763     2924.207    32.392516    263.08929 
 1484000    247.94115    1314.4855     2924.207    31.452499    247.94115 
 1485000    235.63104    12328.479     2924.207    29.064011    235.63104 
 1486000    251.65869    3068.9683     2924.207    26.719324    251.65869 
 1487000    248.20211    5362.8291     2924.207    27.789354    248.20211 
 1488000    247.53325    13757.316     2924.207    28.216135    247.53325 
 1489000    242.58394    12316.801     2924.207    28.281107    242.58394 
 1490000    240.38111    1795.0364     2924.207    28.304416    240.38111 
 1491000    256.42473   -1806.5217     2924.207    29.383313    256.42473 
 1492000    255.21817    14774.378     2924.207    27.468735    255.21817 
 1493000    260.93856    5676.7144     2924.207    26.192004    260.93856 
 1494000    250.87011    5643.6057     2924.207     26.81882    250.87011 
 1495000    264.08265    6150.0183     2924.207    28.528738    264.08265 
 1496000    271.07724    10814.181     2924.207    27.779648    271.07724 
 1497000    269.15161    5126.1379     2924.207    26.003783    269.15161 
 1498000    271.01174     3794.321     2924.207    25.928208    271.01174 
 1499000    233.53338    596.86339     2924.207    26.277129    233.53338 
 1500000    252.17578    11824.728     2924.207    23.782422    252.17578 
 1501000    255.36511    12962.528     2924.207    21.680639    255.36511 
 1502000    256.62962   -3724.3781     2924.207    20.230082    256.62962 
 1503000    249.65509    2747.9881     2924.207    19.330399    249.65509 
 1504000    252.13603    16519.464     2924.207    18.087415    252.13603 
 1505000    241.96056   -1606.1137     2924.207    17.896664    241.96056 
 1506000    248.74874    1198.6609     2924.207     19.66125    248.74874 
 1507000    260.48037    12102.169     2924.207    23.953651    260.48037 
 1508000    252.66688    14218.002     2924.207    26.054817    252.66688 
 1509000    254.55675    2017.0927     2924.207    24.879685    254.55675 
 1510000    234.94928    5457.1404     2924.207    24.647235    234.94928 
 1511000    272.31429    11240.042     2924.207    25.463156    272.31429 
 1512000    265.16967     9048.602     2924.207    26.480854    265.16967 
 1513000    276.49318    4229.5343     2924.207    29.577533    276.49318 
 1514000    268.26867    4594.4911     2924.207    32.629955    268.26867 
 1515000    269.10021    1633.3665     2924.207     33.84381    269.10021 
 1516000    257.30308    9916.7009     2924.207    34.259793    257.30308 
 1517000    248.36543     9456.567     2924.207    34.016122    248.36543 
 1518000    264.38191    1059.8398     2924.207    33.494615    264.38191 
 1519000    253.41269    6373.2897     2924.207    33.571445    253.41269 
 1520000    261.40459    14374.784     2924.207    33.876943    261.40459 
 1521000    267.52279   -866.24393     2924.207     35.10441    267.52279 
 1522000    274.04502    6930.0373     2924.207    36.022974    274.04502 
 1523000     247.5373     9324.307     2924.207    35.779054     247.5373 
 1524000    265.32871    1540.1008     2924.207    33.653897    265.32871 
 1525000    272.53098    8132.1083     2924.207     31.08416    272.53098 
 1526000    260.26911    6266.0983     2924.207    28.998611    260.26911 
 1527000    267.93886    2957.1217     2924.207    28.731365    267.93886 
 1528000     255.6632    2334.5682     2924.207    27.726196     255.6632 
 1529000     255.3567    11501.367     2924.207    27.511588     255.3567 
 1530000    256.58803    6981.0492     2924.207    29.627677    256.58803 
 1531000    252.49318    6201.9252     2924.207    31.251818    252.49318 
 1532000    267.69647    13457.781     2924.207    32.163391    267.69647 
 1533000    271.62461    13163.388     2924.207    31.781821    271.62461 
 1534000    243.27792   -1333.9699     2924.207    30.498543    243.27792 
 1535000    256.12941    4418.7578     2924.207    28.203041    256.12941 
 1536000     266.7857    12835.562     2924.207    26.466951     266.7857 
 1537000    264.31936    3997.9891     2924.207    26.002044    264.31936 
 1538000    260.70526    2852.6901     2924.207    24.880126    260.70526 
 1539000    246.77252    14282.937     2924.207    22.816558    246.77252 
 1540000    265.03188    4469.1764     2924.207    22.138648    265.03188 
 1541000    251.84074    4344.0171     2924.207     22.71931    251.84074 
 1542000     244.2477    9335.5709     2924.207    25.575904     244.2477 
 1543000    260.53182    10058.656     2924.207    28.636089    260.53182 
 1544000    253.27844     4737.924     2924.207    31.229719    253.27844 
 1545000    257.69189    6483.7363     2924.207    33.620415    257.69189 
 1546000    264.99946     14395.73     2924.207    34.572939    264.99946 
 1547000    235.31108    2628.8689     2924.207    34.721315    235.31108 
 1548000    268.26421     2729.334     2924.207    34.535626    268.26421 
 1549000    246.86904     7120.967     2924.207    34.858605    246.86904 
 1550000    264.38687    9159.7194     2924.207    35.297902    264.38687 
 1551000     275.4765    5599.2524     2924.207    33.833831     275.4765 
 1552000     250.0123    3274.4711     2924.207    30.817531     