
#--------------------------------------------------------------------------
#nve rescale
#--------------------------------------------------------------------------
	velocity 		all create ${T_run} ${seed} rot yes dist gaussian
	velocity 		all create 300 ${seed} rot yes dist gaussian
	velocity 		all create 300 11111 rot yes dist gaussian

	fix 			1 all nve
	fix 			2 all temp/rescale 1 ${T_run} ${T_run} 0.01 1.0
	fix 			2 all temp/rescale 1 300 ${T_run} 0.01 1.0
	fix 			2 all temp/rescale 1 300 300 0.01 1.0
	timestep		${dt}
	timestep		0.0010000000000000000208
	thermo_style  		custom step temp press etotal vol
	thermo			1000
	run             	100000
Memory usage per processor = 4.94889 Mbytes
Step Temp Press TotEng Volume 
       0          300    170606.47   -1574.3912     3048.625 
    1000          300     -12075.1   -1596.9151     3048.625 
    2000          300    662.76994   -1597.8786     3048.625 
    3000          300    21186.551   -1597.8304     3048.625 
    4000          300    42134.043   -1598.3984     3048.625 
    5000          300    23848.227   -1597.7211     3048.625 
    6000          300    16909.808   -1598.1879     3048.625 
    7000          300   -12308.936   -1598.0362     3048.625 
    8000          300   -17886.649   -1597.0424     3048.625 
    9000          300   -18695.446   -1597.5583     3048.625 
   10000          300    1894.8448   -1597.8139     3048.625 
   11000          300    25010.435   -1597.4472     3048.625 
   12000          300     26291.44   -1597.6987     3048.625 
   13000          300    19494.345   -1598.2138     3048.625 
   14000          300   -2523.8523   -1597.7004     3048.625 
   15000          300   -15529.519    -1597.593     3048.625 
   16000          300    -2630.453   -1597.3378     3048.625 
   17000          300    6749.3675   -1597.5331     3048.625 
   18000          300    16056.654     -1598.12     3048.625 
   19000          300    20492.682   -1597.5173     3048.625 
   20000          300   -1928.7247   -1597.9837     3048.625 
   21000          300   -2819.4755   -1598.0055     3048.625 
   22000          300    8491.0305   -1597.5206     3048.625 
   23000          300    6607.4245   -1597.8138     3048.625 
   24000          300   -2235.7066   -1598.5859     3048.625 
   25000          300   -845.99547   -1597.9532     3048.625 
   26000          300    5718.1839   -1597.4936     3048.625 
   27000          300    3919.1393   -1597.6148     3048.625 
   28000          300    6741.2665   -1597.9086     3048.625 
   29000          300    7848.1095   -1597.5619     3048.625 
   30000          300    1340.5106   -1597.7621     3048.625 
   31000          300    8043.1281   -1598.2259     3048.625 
   32000          300    9819.0136   -1597.5578     3048.625 
   33000          300   -1923.9403   -1597.7689     3048.625 
   34000          300    8089.2911   -1597.9038     3048.625 
   35000          300    3313.2441   -1598.5942     3048.625 
   36000          300    4721.0979   -1597.5096     3048.625 
   37000          300     12849.23   -1597.7934     3048.625 
   38000          300    7354.4678   -1598.4741     3048.625 
   39000          300    8931.0114   -1598.3936     3048.625 
   40000          300    3958.7832   -1597.0713     3048.625 
   41000          300    1704.0196    -1598.673     3048.625 
   42000          300     13392.26   -1598.7679     3048.625 
   43000          300    6305.2545    -1597.952     3048.625 
   44000          300    4273.6524   -1598.2364     3048.625 
   45000          300    1715.7393   -1598.5475     3048.625 
   46000          300    11626.621   -1597.7623     3048.625 
   47000          300    9952.4108   -1597.8407     3048.625 
   48000          300    9118.2431   -1597.6608     3048.625 
   49000          300    13965.029   -1597.5263     3048.625 
   50000          300   -1270.9453   -1598.0093     3048.625 
   51000          300    8842.3008   -1597.3271     3048.625 
   52000          300    18590.376   -1597.3264     3048.625 
   53000          300    5177.0596   -1596.9232     3048.625 
   54000          300    18087.851   -1596.7189     3048.625 
   55000          300    9742.7188   -1597.9077     3048.625 
   56000          300    12933.051   -1597.8409     3048.625 
   57000          300     9858.548   -1598.3481     3048.625 
   58000          300    5229.4151   -1599.1533     3048.625 
   59000          300    10556.042   -1600.2575     3048.625 
   60000          300    7487.2949   -1599.1844     3048.625 
   61000          300    5700.1041    -1599.364     3048.625 
   62000          300    3817.4586   -1599.3692     3048.625 
   63000          300    14596.145   -1599.3296     3048.625 
   64000          300    9090.0795   -1599.0035     3048.625 
   65000          300    9345.1331   -1598.8704     3048.625 
   66000          300    13531.038   -1598.9467     3048.625 
   67000          300    8395.3747    -1600.216     3048.625 
   68000          300    1755.8609   -1600.6088     3048.625 
   69000          300    3274.6912    -1599.986     3048.625 
   70000          300    6248.0518   -1599.7311     3048.625 
   71000          300    11822.696   -1599.9323     3048.625 
   72000          300    9220.8562   -1599.8719     3048.625 
   73000          300    9035.1014   -1600.8187     3048.625 
   74000          300    5665.2876   -1600.7393     3048.625 
   75000          300    1358.9475   -1600.7136     3048.625 
   76000          300    11781.664   -1601.4885     3048.625 
   77000          300    4039.9653   -1601.0284     3048.625 
   78000          300     5635.265   -1600.9948     3048.625 
   79000          300    11912.417   -1601.2559     3048.625 
   80000          300    742.40417   -1601.0914     3048.625 
   81000          300    4946.9103   -1601.2939     3048.625 
   82000          300     8388.822   -1601.4645     3048.625 
   83000          300    10809.014   -1601.1716     3048.625 
   84000          300    8169.6313   -1601.2579     3048.625 
   85000          300    6267.4623   -1601.5186     3048.625 
   86000          300    7122.1235   -1601.8356     3048.625 
   87000          300    6770.6726   -1601.6706     3048.625 
   88000          300    1681.3348   -1601.9775     3048.625 
   89000          300    5119.8941   -1602.0757     3048.625 
   90000          300    8731.1763   -1602.2431     3048.625 
   91000          300    9200.8669   -1601.6103     3048.625 
   92000          300    8359.8477   -1601.3252     3048.625 
   93000          300    11213.902   -1601.4687     3048.625 
   94000          300    7407.4291   -1602.3528     3048.625 
   95000          300     5127.317   -1601.4027     3048.625 
   96000          300    18245.054   -1601.8234     3048.625 
   97000          300    10034.316   -1602.3079     3048.625 
   98000          300    2478.7626   -1602.2847     3048.625 
   99000          300    9197.7028   -1601.7799     3048.625 
  100000          300    9318.0002   -1602.4954     3048.625 
Loop time of 1773.35 on 1 procs for 100000 steps with 240 atoms

Pair  time (%) = 1759.78 (99.2346)
Bond  time (%) = 0.0518339 (0.00292293)
Neigh time (%) = 6.69885 (0.37775)
Comm  time (%) = 4.54976 (0.256562)
Outpt time (%) = 0.0043478 (0.000245174)
Other time (%) = 2.26903 (0.127951)

Nlocal:    240 ave 240 max 240 min
Histogram: 1 0 0 0 0 0 0 0 0 0
Nghost:    5796 ave 5796 max 5796 min
Histogram: 1 0 0 0 0 0 0 0 0 0
Neighs:    87880 ave 87880 max 87880 min
Histogram: 1 0 0 0 0 0 0 0 0 0
FullNghs:  175760 ave 175760 max 175760 min
Histogram: 1 0 0 0 0 0 0 0 0 0

Total # of neighbors = 175760
Ave neighs/atom = 732.333
Ave special neighs/atom = 0
Neighbor list builds = 592
Dangerous builds = 0
#	run             	1000
	unfix 			1
	unfix 			2
#--------------------------------------------------------------------------
#nve
#--------------------------------------------------------------------------
	fix 			1 all nve
	timestep		${dt}
	timestep		0.0010000000000000000208
	thermo_style  		custom step temp press etotal vol
	thermo			1000
	run             	100000
Memory usage per processor = 5.40665 Mbytes
Step Temp Press TotEng Volume 
  100000          300    9318.0002   -1602.4954     3048.625 
  101000    311.33571    3797.8939   -1602.4988     3048.625 
  102000     304.9762    10010.389   -1602.4991     3048.625 
  103000    277.77074    7250.1675   -1602.4945     3048.625 
  104000    276.70035    20071.651   -1602.4998     3048.625 
  105000    258.27825    5580.3684   -1602.4926     3048.625 
  106000    272.03389    16862.459    -1602.497     3048.625 
  107000    274.08231    2291.8249   -1602.4929     3048.625 
  108000    279.14588    10502.306   -1602.4932     3048.625 
  109000    289.74326    12153.682   -1602.5027     3048.625 
  110000      285.497    5466.4461   -1602.4979     3048.625 
  111000    293.93982    11715.926   -1602.4986     3048.625 
  112000    295.15422    2582.6346   -1602.4951     3048.625 
  113000    287.61868    7033.5263   -1602.4965     3048.625 
  114000    290.08925    7504.5183   -1602.5001     3048.625 
  115000    277.84566    12393.644   -1602.4949     3048.625 
  116000    289.19007    6814.6647   -1602.4996     3048.625 
  117000    285.61488     11474.06    -1602.499     3048.625 
  118000    293.65868    11329.817   -1602.4941     3048.625 
  119000    280.48307    7393.2526    -1602.493     3048.625 
  120000    306.46934    1895.6109   -1602.5022     3048.625 
  121000    295.04235     5872.314   -1602.4966     3048.625 
  122000    292.55291    4871.6986   -1602.4947     3048.625 
  123000    288.37387    4438.3483   -1602.4958     3048.625 
  124000    298.44165     8027.447   -1602.4975     3048.625 
  125000    286.49327    9687.0773   -1602.4998     3048.625 
  126000    298.06424    8822.9669   -1602.4991     3048.625 
  127000    291.80282    5177.8088   -1602.4929     3048.625 
  128000    293.88373    5567.1034   -1602.4977     3048.625 
  129000     293.7164    9776.6116   -1602.4976     3048.625 
  130000    301.84368    9353.3363   -1602.4955     3048.625 
  131000     290.4428    4340.3616   -1602.4977     3048.625 
  132000    300.10663    6062.7803   -1602.4954     3048.625 
  133000    304.05945    4089.4856   -1602.4956     3048.625 
  134000    296.39876    4463.8482   -1602.4967     3048.625 
  135000    273.14891    10051.693   -1602.4982     3048.625 
  136000    288.06512    8140.1987   -1602.4968     3048.625 
  137000      297.551    9275.6204   -1602.4974     3048.625 
  138000    266.08969    13096.664   -1602.4999     3048.625 
  139000    259.79094    15282.198   -1602.4984     3048.625 
  140000     275.2904    8351.3238   -1602.4985     3048.625 
  141000    281.07559    15590.829   -1602.4973     3048.625 
  142000    281.25608    6629.8709   -1602.4993     3048.625 
  143000    257.19278    14388.303   -1602.4976     3048.625 
  144000    280.47993    16131.696   -1602.5014     3048.625 
  145000    285.56694    8450.7811      -1602.5     3048.625 
  146000    254.50339    17803.506   -1602.5009     3048.625 
  147000    260.83719    8679.4925   -1602.4946     3048.625 
  148000    270.09383    15251.947   -1602.5022     3048.625 
  149000    301.25675   -779.56288   -1602.4993     3048.625 
  150000    271.56061    15555.662   -1602.5007     3048.625 
  151000    285.38961    6782.9867   -1602.4961     3048.625 
  152000    282.44859    8831.6684   -1602.4987     3048.625 
  153000    277.79871    12590.737   -1602.4981     3048.625 
  154000    232.36329     16519.81   -1602.4967     3048.625 
  155000    261.41767    10323.726   -1602.4962     3048.625 
  156000     261.5866    11367.617    -1602.499     3048.625 
  157000    261.11482    16113.255    -1602.495     3048.625 
  158000    286.41504    7948.1669   -1602.4979     3048.625 
  159000    291.94628    2352.7202   -1602.4942     3048.625 
  160000    255.54315    15934.339   -1602.4951     3048.625 
  161000    249.08891    11264.801   -1602.4979     3048.625 
  162000    249.31107    15967.208   -1602.5017     3048.625 
  163000    245.88174    19118.415   -1602.4971     3048.625 
  164000    245.58858    13222.347   -1602.4967     3048.625 
  165000    275.89312    6033.2137   -1602.4985     3048.625 
  166000    248.40592    18391.867   -1602.4941     3048.625 
  167000    273.40962    8388.3116   -1602.4961     3048.625 
  168000    284.62802    2718.6841   -1602.4929     3048.625 
  169000    297.74263    8911.5027    -1602.493     3048.625 
  170000    295.50777    97.133955   -1602.4973     3048.625 
  171000    287.40606    459.07496   -1602.4938     3048.625 
  172000    292.55241    6007.6677   -1602.4944     3048.625 
  173000    292.25731    4790.8754   -1602.4994     3048.625 
  174000    266.21583    9754.9129   -1602.4983     3048.625 
  175000    283.15193    14226.288    -1602.498     3048.625 
  176000    274.25162    3236.4641   -1602.4935     3048.625 
  177000    292.87545    7237.7512   -1602.4979     3048.625 
  178000    286.33482    8367.3848   -1602.4984     3048.625 
  179000    275.56611    4481.6273   -1602.4982     3048.625 
  180000     241.3396    17799.421   -1602.5006     3048.625 
  181000    261.86037    14399.098   -1602.5004     3048.625 
  182000    265.76038    7798.3763   -1602.4983     3048.625 
  183000    231.15104    17804.514   -1602.4938     3048.625 
  184000    217.56987    14508.891   -1602.4956     3048.625 
  185000    270.43823    15466.226   -1602.4985     3048.625 
  186000    261.77237    9852.1184   -1602.4988     3048.625 
  187000    277.18346    6035.7219   -1602.4928     3048.625 
  188000    267.80287    12292.558   -1602.5012     3048.625 
  189000    242.00558    14464.467   -1602.4979     3048.625 
  190000     269.7087    10429.979   -1602.5005     3048.625 
  191000    277.37406    5926.2026   -1602.4971     3048.625 
  192000    284.83335    9218.8267   -1602.4999     3048.625 
  193000    277.42008    3570.5936   -1602.4976     3048.625 
  194000    268.46227    9451.7512   -1602.5027     3048.625 
  195000    271.75707    12260.666   -1602.5014     3048.625 
  196000    261.10405    14145.943    -1602.496     3048.625 
  197000    274.44063    4197.7165   -1602.4979     3048.625 
  198000    243.75787    14856.872   -1602.4924     3048.625 
  199000    281.26147    9755.3833   -1602.4991     3048.625 
  200000    228.22537    9226.6657     -1602.49     3048.625 
Loop time of 1941.98 on 1 procs for 100000 steps with 240 atoms

Pair  time (%) = 1923.42 (99.0445)
Bond  time (%) = 0.0483155 (0.00248796)
Neigh time (%) = 11.5439 (0.594441)
Comm  time (%) = 4.93293 (0.254016)
Outpt time (%) = 0.00458193 (0.000235941)
Other time (%) = 2.0268 (0.104368)

Nlocal:    240 ave 240 max 240 min
Histogram: 1 0 0 0 0 0 0 0 0 0
Nghost:    5799 ave 5799 max 5799 min
Histogram: 1 0 0 0 0 0 0 0 0 0
Neighs:    87835 ave 87835 max 87835 min
Histogram: 1 0 0 0 0 0 0 0 0 0
FullNghs:  175670 ave 175670 max 175670 min
Histogram: 1 0 0 0 0 0 0 0 0 0

Total # of neighbors = 175670
Ave neighs/atom = 731.958
Ave special neighs/atom = 0
Neighbor list builds = 939
Dangerous builds = 0
#	run             	10000
	unfix 			1
#--------------------------------------------------------------------------
#kappa
#--------------------------------------------------------------------------
log 	log_kappa_${iseed}.lammps
log 	log_kappa_1.lammps
