
#--------------------------------------------------------------------------
#nve rescale
#--------------------------------------------------------------------------
	velocity 		all create ${T_run} ${seed} rot yes dist gaussian
	velocity 		all create 300 ${seed} rot yes dist gaussian
	velocity 		all create 300 11110 rot yes dist gaussian

	fix 			1 all nve
	fix 			2 all temp/rescale 1 ${T_run} ${T_run} 0.01 1.0
	fix 			2 all temp/rescale 1 300 ${T_run} 0.01 1.0
	fix 			2 all temp/rescale 1 300 300 0.01 1.0
	timestep		${dt}
	timestep		0.0010000000000000000208
	thermo_style  		custom step temp press etotal vol
	thermo			1000
	run             	100000
Memory usage per processor = 4.94889 Mbytes
Step Temp Press TotEng Volume 
       0          300    170606.47   -1574.3912     3048.625 
    1000          300   -24491.641   -1595.8654     3048.625 
    2000          300   -28509.808   -1597.8422     3048.625 
    3000          300   -8560.8466   -1597.2773     3048.625 
    4000          300    18042.842   -1597.8852     3048.625 
    5000          300    26826.315   -1597.7357     3048.625 
    6000          300    26541.498   -1597.5562     3048.625 
    7000          300    4619.4416   -1598.3171     3048.625 
    8000          300   -8206.5141   -1597.4238     3048.625 
    9000          300   -16891.094   -1598.2442     3048.625 
   10000          300   -5297.7008   -1598.2059     3048.625 
   11000    299.99189    4586.6906   -1598.0643     3048.625 
   12000          300    18346.184   -1597.7646     3048.625 
   13000          300    18031.043   -1598.1581     3048.625 
   14000          300    9039.8724   -1597.7953     3048.625 
   15000          300   -7611.6239   -1597.9345     3048.625 
   16000          300    450.80637   -1598.0339     3048.625 
   17000          300    2170.1368    -1597.606     3048.625 
   18000          300    7834.8407   -1598.0598     3048.625 
   19000          300     14433.43   -1596.9168     3048.625 
   20000          300    14039.245   -1597.5224     3048.625 
   21000          300    567.37197   -1597.9711     3048.625 
   22000          300    2068.6933   -1597.4445     3048.625 
   23000          300     -434.746   -1597.2743     3048.625 
   24000          300    6728.7578   -1598.1594     3048.625 
   25000          300    10708.536   -1598.0275     3048.625 
   26000          300    3628.7915   -1597.4453     3048.625 
   27000          300    3509.4883   -1598.0783     3048.625 
   28000          300    3460.0668   -1598.2266     3048.625 
   29000          300    11418.253   -1597.9497     3048.625 
   30000          300    5156.6501   -1597.6406     3048.625 
   31000          300    1898.9468   -1598.1452     3048.625 
   32000          300    5132.4964   -1597.9002     3048.625 
   33000          300    3294.5713   -1597.9694     3048.625 
   34000          300    9218.2343   -1597.2242     3048.625 
   35000          300    16600.395   -1597.5872     3048.625 
   36000          300   -135.48727   -1598.7298     3048.625 
   37000          300   -9107.4057   -1597.5952     3048.625 
   38000          300    6659.7286   -1598.1235     3048.625 
   39000          300        13122   -1598.7799     3048.625 
   40000          300    17690.074   -1598.2097     3048.625 
   41000          300   -3587.7897   -1598.3106     3048.625 
   42000          300   -5651.0536   -1598.4265     3048.625 
   43000          300    14837.318   -1598.1577     3048.625 
   44000          300    12438.918   -1597.9806     3048.625 
   45000          300     3430.392   -1598.9772     3048.625 
   46000          300    6081.9426   -1597.8076     3048.625 
   47000          300     11109.99    -1598.244     3048.625 
   48000          300    3777.4321   -1597.3927     3048.625 
   49000          300    6995.0902   -1598.1757     3048.625 
   50000          300    4546.8987   -1598.8572     3048.625 
   51000          300    11761.077   -1597.2964     3048.625 
   52000          300    9090.4513   -1597.5739     3048.625 
   53000          300    8079.6924   -1598.8248     3048.625 
   54000          300    4998.4793   -1598.5786     3048.625 
   55000          300    11077.678   -1599.3889     3048.625 
   56000          300     9521.633   -1598.1499     3048.625 
   57000          300    6358.6181   -1598.4865     3048.625 
   58000          300    10388.051   -1598.9091     3048.625 
   59000          300    10074.863   -1597.5889     3048.625 
   60000          300    19850.345   -1597.7107     3048.625 
   61000          300     3899.538    -1598.048     3048.625 
   62000          300    16253.005   -1598.7132     3048.625 
   63000          300    4951.2704   -1599.2252     3048.625 
   64000          300    12407.807    -1598.097     3048.625 
   65000          300    16962.116   -1597.5196     3048.625 
   66000          300    4458.9674   -1598.7194     3048.625 
   67000          300    13028.286   -1600.0321     3048.625 
   68000          300   -57.948028   -1600.3842     3048.625 
   69000          300    15458.148   -1598.8305     3048.625 
   70000          300     11877.41   -1598.3835     3048.625 
   71000          300    3193.7154   -1599.2749     3048.625 
   72000          300    11377.216   -1599.3734     3048.625 
   73000          300    10108.059    -1600.192     3048.625 
   74000          300     2891.673   -1600.3047     3048.625 
   75000          300      21105.4   -1598.6685     3048.625 
   76000          300    11376.236   -1599.0425     3048.625 
   77000          300    9760.5355   -1599.4682     3048.625 
   78000          300     13080.34   -1599.7355     3048.625 
   79000          300    10995.897   -1599.5791     3048.625 
   80000          300    7057.7441   -1600.3386     3048.625 
   81000          300    13593.491   -1598.8521     3048.625 
   82000          300    9594.6556   -1599.1898     3048.625 
   83000          300    7103.5194   -1600.8284     3048.625 
   84000          300    8316.8777   -1600.6389     3048.625 
   85000          300    14230.247   -1599.2779     3048.625 
   86000          300    14571.513   -1599.7951     3048.625 
   87000          300    8349.2722   -1599.9529     3048.625 
   88000          300    13932.489   -1600.2386     3048.625 
   89000          300    15303.263   -1600.0145     3048.625 
   90000          300    12346.546   -1598.9689     3048.625 
   91000          300    14209.875   -1600.3359     3048.625 
   92000          300    2999.5901   -1601.1972     3048.625 
   93000          300    18626.244   -1599.6216     3048.625 
   94000          300    16645.431   -1599.4262     3048.625 
   95000          300    21694.964   -1599.3603     3048.625 
   96000          300    15708.418   -1600.0468     3048.625 
   97000          300    10816.588   -1600.4812     3048.625 
   98000          300    8921.9958   -1601.2147     3048.625 
   99000          300    7413.3361   -1601.3602     3048.625 
  100000          300    24527.917   -1597.2259     3048.625 
Loop time of 1069.67 on 1 procs for 100000 steps with 240 atoms

Pair  time (%) = 1061.42 (99.2289)
Bond  time (%) = 0.0287998 (0.00269239)
Neigh time (%) = 3.82526 (0.35761)
Comm  time (%) = 2.90894 (0.271947)
Outpt time (%) = 0.00301933 (0.000282267)
Other time (%) = 1.48195 (0.138542)

Nlocal:    240 ave 240 max 240 min
Histogram: 1 0 0 0 0 0 0 0 0 0
Nghost:    5778 ave 5778 max 5778 min
Histogram: 1 0 0 0 0 0 0 0 0 0
Neighs:    87901 ave 87901 max 87901 min
Histogram: 1 0 0 0 0 0 0 0 0 0
FullNghs:  175802 ave 175802 max 175802 min
Histogram: 1 0 0 0 0 0 0 0 0 0

Total # of neighbors = 175802
Ave neighs/atom = 732.508
Ave special neighs/atom = 0
Neighbor list builds = 539
Dangerous builds = 0
#	run             	1000
	unfix 			1
	unfix 			2
#--------------------------------------------------------------------------
#nve
#--------------------------------------------------------------------------
	fix 			1 all nve
	timestep		${dt}
	timestep		0.0010000000000000000208
	thermo_style  		custom step temp press etotal vol
	thermo			1000
	run             	100000
Memory usage per processor = 5.40665 Mbytes
Step Temp Press TotEng Volume 
  100000          300    24527.917   -1597.2259     3048.625 
  101000    372.02358    15374.462   -1597.2357     3048.625 
  102000     376.1074    13638.713   -1597.2348     3048.625 
  103000     364.2831    20695.601   -1597.2317     3048.625 
  104000    387.30629    14709.275   -1597.2344     3048.625 
  105000    361.10895    17545.552   -1597.2282     3048.625 
  106000    407.53225    7637.8539   -1597.2378     3048.625 
  107000    374.30018    15567.218   -1597.2355     3048.625 
  108000    429.41952     405.6031   -1597.2328     3048.625 
  109000    323.46486    23962.766   -1597.2308     3048.625 
  110000    319.80205     22980.33   -1597.2364     3048.625 
  111000    358.99263      18635.4   -1597.2339     3048.625 
  112000    408.37648    1461.0382   -1597.2356     3048.625 
  113000    322.37591    27469.726   -1597.2327     3048.625 
  114000    290.68599    29156.765   -1597.2344     3048.625 
  115000    350.46022    19728.713   -1597.2357     3048.625 
  116000    404.00755    9977.5322   -1597.2394     3048.625 
  117000    416.31453    10688.973   -1597.2331     3048.625 
  118000    346.99534    22554.622   -1597.2333     3048.625 
  119000    305.39429    19806.104   -1597.2287     3048.625 
  120000    364.78008    17424.902   -1597.2344     3048.625 
  121000    356.44208     18620.54   -1597.2346     3048.625 
  122000    311.25362    17100.917   -1597.2358     3048.625 
  123000    331.65934    22256.056   -1597.2344     3048.625 
  124000    314.68961    24672.671   -1597.2338     3048.625 
  125000    350.58675    20277.496   -1597.2322     3048.625 
  126000    380.70887    17420.656   -1597.2324     3048.625 
  127000    307.01823    17776.835   -1597.2316     3048.625 
  128000    385.23158    14198.763   -1597.2443     3048.625 
  129000    373.11982    12553.098   -1597.2374     3048.625 
  130000    354.60903    15193.487   -1597.2327     3048.625 
  131000    363.61393    13298.627   -1597.2327     3048.625 
  132000    360.83275    14605.841   -1597.2394     3048.625 
  133000    319.11553    17406.277   -1597.2332     3048.625 
  134000    384.24554    7038.1877   -1597.2334     3048.625 
  135000    353.75642    15015.926   -1597.2321     3048.625 
  136000    371.32313    19605.259    -1597.238     3048.625 
  137000    345.79462    20142.277   -1597.2293     3048.625 
  138000    374.68726    13943.965   -1597.2391     3048.625 
  139000     359.3099    14834.865   -1597.2389     3048.625 
  140000    317.20951    23750.236    -1597.236     3048.625 
  141000    361.93987    8498.7251   -1597.2319     3048.625 
  142000    391.34569    11070.758   -1597.2354     3048.625 
  143000    385.69093    12353.208   -1597.2368     3048.625 
  144000    345.74229    16591.024   -1597.2362     3048.625 
  145000    368.34835       6652.3    -1597.234     3048.625 
  146000    406.08131    6752.2712   -1597.2382     3048.625 
  147000    370.88599     13068.62    -1597.236     3048.625 
  148000    392.36069    11624.813   -1597.2273     3048.625 
  149000    370.75691    13837.143   -1597.2392     3048.625 
  150000    336.32787    14233.164   -1597.2316     3048.625 
  151000     399.5942    6149.4493   -1597.2378     3048.625 
  152000     390.4183     5838.815   -1597.2341     3048.625 
  153000     351.7139    12534.732   -1597.2353     3048.625 
  154000    347.30791    6906.8168   -1597.2301     3048.625 
  155000     390.7454    13197.692   -1597.2392     3048.625 
  156000    352.22067    15730.226   -1597.2409     3048.625 
  157000    368.83219    19719.947   -1597.2379     3048.625 
  158000    341.14543    11768.579   -1597.2356     3048.625 
  159000    380.92539    10463.218   -1597.2352     3048.625 
  160000    361.61334    10346.987   -1597.2328     3048.625 
  161000    350.27275    18849.036   -1597.2342     3048.625 
  162000    385.27834    7666.7848   -1597.2341     3048.625 
  163000    386.18223    4937.9594   -1597.2377     3048.625 
  164000    304.03198    25822.639   -1597.2309     3048.625 
  165000    359.23258     12214.04   -1597.2376     3048.625 
  166000    369.68145    12603.092   -1597.2314     3048.625 
  167000     320.0034    19251.033   -1597.2411     3048.625 
  168000    332.57845    19963.437   -1597.2314     3048.625 
  169000    342.70567    17127.002   -1597.2398     3048.625 
  170000    315.84671    17121.114   -1597.2336     3048.625 
  171000    316.19644    18332.006   -1597.2374     3048.625 
  172000    321.69794    14309.451   -1597.2274     3048.625 
  173000    348.35466    12009.872   -1597.2308     3048.625 
  174000    372.49574    13199.021    -1597.236     3048.625 
  175000    379.70275     8393.034   -1597.2321     3048.625 
  176000    358.23765    16737.532   -1597.2355     3048.625 
  177000    341.25055    7171.7398   -1597.2297     3048.625 
  178000    301.75733    21931.605   -1597.2306     3048.625 
  179000     405.9177    12413.614   -1597.2386     3048.625 
  180000    324.87961    14231.347   -1597.2351     3048.625 
  181000    369.72712    15938.944   -1597.2252     3048.625 
  182000    367.64146    12890.226   -1597.2407     3048.625 
  183000    323.32426    16947.671   -1597.2367     3048.625 
  184000    326.32269    15507.647    -1597.231     3048.625 
  185000      352.204    9775.1713   -1597.2415     3048.625 
  186000    333.10311    23228.201   -1597.2359     3048.625 
  187000    379.16882    9790.8495    -1597.249     3048.625 
  188000     332.6409    15867.849   -1597.2376     3048.625 
  189000    375.27679    12083.449   -1597.2347     3048.625 
  190000    376.56294    7571.1676    -1597.239     3048.625 
  191000    347.16911    17263.836   -1597.2388     3048.625 
  192000    356.75222     7283.134   -1597.2388     3048.625 
  193000    330.77632    15506.714   -1597.2393     3048.625 
  194000    351.71497    15089.177   -1597.2425     3048.625 
  195000    364.98363    8277.2803   -1597.2354     3048.625 
  196000    361.50395    10493.259   -1597.2407     3048.625 
  197000    380.66369     5476.056   -1597.2397     3048.625 
  198000    334.11868    18193.794   -1597.2456     3048.625 
  199000    350.91114    12425.182     -1597.24     3048.625 
  200000    314.63198    17060.623   -1597.2346     3048.625 
Loop time of 1069.18 on 1 procs for 100000 steps with 240 atoms

Pair  time (%) = 1057.55 (98.912)
Bond  time (%) = 0.0254784 (0.00238297)
Neigh time (%) = 7.36509 (0.688852)
Comm  time (%) = 2.9534 (0.276229)
Outpt time (%) = 0.00317407 (0.000296868)
Other time (%) = 1.28538 (0.120221)

Nlocal:    240 ave 240 max 240 min
Histogram: 1 0 0 0 0 0 0 0 0 0
Nghost:    5853 ave 5853 max 5853 min
Histogram: 1 0 0 0 0 0 0 0 0 0
Neighs:    87907 ave 87907 max 87907 min
Histogram: 1 0 0 0 0 0 0 0 0 0
FullNghs:  175814 ave 175814 max 175814 min
Histogram: 1 0 0 0 0 0 0 0 0 0

Total # of neighbors = 175814
Ave neighs/atom = 732.558
Ave special neighs/atom = 0
Neighbor list builds = 1039
Dangerous builds = 0
#	run             	10000
	unfix 			1
#--------------------------------------------------------------------------
#kappa
#--------------------------------------------------------------------------
log 	log_kappa_${iseed}.lammps
log 	log_kappa_10.lammps
