
#--------------------------------------------------------------------------
#nve rescale
#--------------------------------------------------------------------------
	velocity 		all create ${T_run} ${seed} rot yes dist gaussian
	velocity 		all create 300 ${seed} rot yes dist gaussian
	velocity 		all create 300 33333 rot yes dist gaussian

	fix 			1 all nve
	fix 			2 all temp/rescale 1 ${T_run} ${T_run} 0.01 1.0
	fix 			2 all temp/rescale 1 300 ${T_run} 0.01 1.0
	fix 			2 all temp/rescale 1 300 300 0.01 1.0
	timestep		${dt}
	timestep		0.0010000000000000000208
	thermo_style  		custom step temp press etotal vol
	thermo			1000
	run             	100000
Memory usage per processor = 4.94889 Mbytes
Step Temp Press TotEng Volume 
       0          300    170606.47   -1574.3912     3048.625 
    1000          300   -23400.207   -1596.8599     3048.625 
    2000          300   -18236.486   -1597.9121     3048.625 
    3000          300   -7029.7427   -1597.5379     3048.625 
    4000          300    31441.036   -1597.6501     3048.625 
    5000          300    15130.746   -1597.6182     3048.625 
    6000          300    18607.418   -1597.6475     3048.625 
    7000          300   -2693.1138   -1597.9618     3048.625 
    8000          300   -15116.814   -1597.1978     3048.625 
    9000          300   -10099.971   -1597.6411     3048.625 
   10000          300   -2768.7424   -1598.0787     3048.625 
   11000          300     13596.86   -1597.6205     3048.625 
   12000          300    18020.869   -1597.5716     3048.625 
   13000          300    6040.3785   -1597.7429     3048.625 
   14000          300   -3556.1137   -1597.7069     3048.625 
   15000          300   -4395.0927    -1597.698     3048.625 
   16000          300    9466.6509    -1597.663     3048.625 
   17000          300    8597.2373   -1598.0497     3048.625 
   18000          300    9513.6658   -1598.4919     3048.625 
   19000          300   -3119.0667    -1597.639     3048.625 
   20000          300    4543.3653    -1598.291     3048.625 
   21000          300    3116.8838   -1598.1628     3048.625 
   22000          300     9819.866   -1597.7716     3048.625 
   23000          300    648.55668   -1598.8244     3048.625 
   24000          300    135.65776   -1597.2078     3048.625 
   25000          300   -1084.8557   -1597.6195     3048.625 
   26000          300    12825.191    -1597.728     3048.625 
   27000          300    5095.5226   -1598.7338     3048.625 
   28000          300    2790.6724   -1598.0137     3048.625 
   29000          300    12467.433   -1598.0094     3048.625 
   30000          300    12637.648   -1597.6742     3048.625 
   31000          300   -602.98402   -1597.8216     3048.625 
   32000          300   -998.54055   -1598.3847     3048.625 
   33000          300    16303.001   -1597.8331     3048.625 
   34000          300    13787.419   -1596.9763     3048.625 
   35000          300    2330.1674   -1598.2899     3048.625 
   36000          300    110.48858   -1598.4908     3048.625 
   37000          300     11101.22   -1599.2352     3048.625 
   38000          300    9401.1881   -1597.4289     3048.625 
   39000          300    5092.9153   -1598.1841     3048.625 
   40000          300    7349.9002   -1597.6723     3048.625 
   41000          300    9961.8463   -1598.8415     3048.625 
   42000          300    6960.0565   -1598.8893     3048.625 
   43000          300    4204.0565   -1598.3308     3048.625 
   44000          300    13071.466   -1596.8687     3048.625 
   45000          300    10639.547   -1597.7121     3048.625 
   46000          300    7484.8849   -1597.9114     3048.625 
   47000          300    10384.664   -1598.5119     3048.625 
   48000          300    6114.3511   -1599.7394     3048.625 
   49000          300    903.26959   -1598.4095     3048.625 
   50000          300    12233.503   -1598.5234     3048.625 
   51000          300    6593.5523   -1599.0413     3048.625 
   52000          300    2800.1453   -1599.0955     3048.625 
   53000          300    6913.4881   -1599.6099     3048.625 
   54000          300    8324.2477   -1599.2338     3048.625 
   55000          300    2370.0136   -1600.0836     3048.625 
   56000          300    2403.7068   -1599.6139     3048.625 
   57000          300    5970.3911   -1599.7324     3048.625 
   58000          300     11886.75   -1599.4199     3048.625 
   59000          300    4036.1452   -1599.4636     3048.625 
   60000          300    13694.112   -1599.2508     3048.625 
   61000          300    9197.3191   -1599.9347     3048.625 
   62000          300    4452.6653   -1599.7187     3048.625 
   63000          300    11013.783   -1598.8877     3048.625 
   64000          300    11992.027    -1598.887     3048.625 
   65000          300    7640.0337   -1599.6074     3048.625 
   66000          300    7417.6966   -1600.6761     3048.625 
   67000          300    11522.763   -1600.2028     3048.625 
   68000          300    4903.2823    -1599.821     3048.625 
   69000          300        22323   -1597.4418     3048.625 
   70000          300    5709.1031   -1600.0357     3048.625 
   71000          300     4548.139   -1600.9854     3048.625 
   72000          300     8669.535   -1600.7595     3048.625 
   73000          300    7333.4217   -1600.3323     3048.625 
   74000          300    12246.107   -1600.3358     3048.625 
   75000          300    7866.1007   -1598.8773     3048.625 
   76000          300    5415.0226   -1600.4208     3048.625 
   77000          300    16102.926   -1600.5412     3048.625 
   78000          300   -816.49331   -1600.8241     3048.625 
   79000          300    19530.728   -1598.1649     3048.625 
   80000          300    9695.4089    -1600.353     3048.625 
   81000          300    14228.887   -1599.4444     3048.625 
   82000          300    18187.107   -1600.1639     3048.625 
   83000          300    3788.0379   -1600.9783     3048.625 
   84000          300    23735.232    -1598.634     3048.625 
   85000          300    12025.109   -1599.7854     3048.625 
   86000          300    10533.465   -1600.7675     3048.625 
   87000          300    11003.045   -1601.2683     3048.625 
   88000          300    11168.525   -1600.5285     3048.625 
   89000          300    20595.771   -1597.1903     3048.625 
   90000          300    18816.219   -1599.2788     3048.625 
   91000          300    21281.848   -1598.4065     3048.625 
   92000          300    23284.912   -1599.3125     3048.625 
   93000          300    11755.813    -1600.554     3048.625 
   94000          300    17831.329   -1600.6618     3048.625 
   95000          300     9943.705   -1600.7379     3048.625 
   96000          300    17726.843   -1601.3616     3048.625 
   97000          300    14744.662   -1601.2639     3048.625 
   98000          300    21538.613   -1600.0877     3048.625 
   99000          300    13003.319   -1601.0495     3048.625 
  100000          300    23851.108     -1597.35     3048.625 
Loop time of 1072.25 on 1 procs for 100000 steps with 240 atoms

Pair  time (%) = 1063.36 (99.1708)
Bond  time (%) = 0.028259 (0.00263548)
Neigh time (%) = 4.4565 (0.41562)
Comm  time (%) = 2.92198 (0.272509)
Outpt time (%) = 0.00306869 (0.00028619)
Other time (%) = 1.48152 (0.138169)

Nlocal:    240 ave 240 max 240 min
Histogram: 1 0 0 0 0 0 0 0 0 0
Nghost:    5805 ave 5805 max 5805 min
Histogram: 1 0 0 0 0 0 0 0 0 0
Neighs:    87963 ave 87963 max 87963 min
Histogram: 1 0 0 0 0 0 0 0 0 0
FullNghs:  175926 ave 175926 max 175926 min
Histogram: 1 0 0 0 0 0 0 0 0 0

Total # of neighbors = 175926
Ave neighs/atom = 733.025
Ave special neighs/atom = 0
Neighbor list builds = 627
Dangerous builds = 0
#	run             	1000
	unfix 			1
	unfix 			2
#--------------------------------------------------------------------------
#nve
#--------------------------------------------------------------------------
	fix 			1 all nve
	timestep		${dt}
	timestep		0.0010000000000000000208
	thermo_style  		custom step temp press etotal vol
	thermo			1000
	run             	100000
Memory usage per processor = 5.40665 Mbytes
Step Temp Press TotEng Volume 
  100000          300    23851.108     -1597.35     3048.625 
  101000    351.53093    14235.686   -1597.3536     3048.625 
  102000    385.97342    10794.302   -1597.3603     3048.625 
  103000    409.56165    18541.912    -1597.354     3048.625 
  104000    312.70379    19143.721   -1597.3581     3048.625 
  105000     389.1191    18806.917   -1597.3563     3048.625 
  106000    332.52489    16948.279   -1597.3547     3048.625 
  107000     405.1771    12335.731   -1597.3562     3048.625 
  108000    348.43751    22385.891   -1597.3549     3048.625 
  109000    327.68642     18349.81   -1597.3571     3048.625 
  110000    380.20344    13608.652   -1597.3659     3048.625 
  111000     393.4026    10289.814   -1597.3599     3048.625 
  112000    398.63867    7847.5274   -1597.3569     3048.625 
  113000    406.74227    7921.5046   -1597.3654     3048.625 
  114000    424.50178    8826.9013    -1597.357     3048.625 
  115000    382.47797    17679.746   -1597.3539     3048.625 
  116000    389.53148     14249.45   -1597.3634     3048.625 
  117000    375.46981    12323.899   -1597.3557     3048.625 
  118000    394.91864    13936.342   -1597.3652     3048.625 
  119000    389.50451    15292.228   -1597.3545     3048.625 
  120000    387.40116    9144.2925   -1597.3549     3048.625 
  121000    370.43827    15989.915   -1597.3591     3048.625 
  122000     381.0591    18086.972   -1597.3678     3048.625 
  123000    402.40274    12529.352   -1597.3679     3048.625 
  124000    330.60289     26280.59    -1597.359     3048.625 
  125000    405.95812    5946.3643   -1597.3594     3048.625 
  126000      402.902    13271.618   -1597.3646     3048.625 
  127000    339.33309    17315.336   -1597.3605     3048.625 
  128000    385.68212    12563.349   -1597.3531     3048.625 
  129000    374.16211    8020.0915   -1597.3576     3048.625 
  130000    382.51316    7308.4826    -1597.359     3048.625 
  131000    326.29196    22895.569   -1597.3612     3048.625 
  132000    360.56394    11459.099   -1597.3579     3048.625 
  133000    369.49184    17224.395   -1597.3609     3048.625 
  134000     364.3879    19667.917   -1597.3622     3048.625 
  135000    390.69913    14542.096   -1597.3674     3048.625 
  136000    347.59571    19239.589   -1597.3586     3048.625 
  137000    391.83223    8899.5154    -1597.359     3048.625 
  138000    372.45887    15980.497   -1597.3623     3048.625 
  139000    356.73936    16961.816   -1597.3612     3048.625 
  140000    382.33193    14299.144   -1597.3637     3048.625 
  141000    320.53589    20910.349   -1597.3652     3048.625 
  142000    381.84819    6881.3711   -1597.3617     3048.625 
  143000    388.06397    13279.041   -1597.3628     3048.625 
  144000    348.92284    18843.068   -1597.3529     3048.625 
  145000     313.6919    20404.703   -1597.3614     3048.625 
  146000    392.83442    11911.951   -1597.3603     3048.625 
  147000    356.05016    16517.039   -1597.3616     3048.625 
  148000    383.92634    8633.8427   -1597.3643     3048.625 
  149000    328.87709    20420.883   -1597.3524     3048.625 
  150000    353.04176    15332.562    -1597.359     3048.625 
  151000    376.95181    15916.397   -1597.3572     3048.625 
  152000    365.32813    12745.021   -1597.3633     3048.625 
  153000    371.71702    12670.362    -1597.364     3048.625 
  154000    349.43835    19966.215   -1597.3585     3048.625 
  155000    396.87101    6097.4353    -1597.362     3048.625 
  156000     367.5327    8065.3748   -1597.3626     3048.625 
  157000    363.34447    13893.002   -1597.3588     3048.625 
  158000    341.13614    18599.582    -1597.365     3048.625 
  159000    375.45027    5052.2815   -1597.3718     3048.625 
  160000    362.52654    8964.0414   -1597.3537     3048.625 
  161000     366.9976    12859.723   -1597.3625     3048.625 
  162000    363.61808    15064.761   -1597.3602     3048.625 
  163000    354.59214    13113.374   -1597.3621     3048.625 
  164000     391.7146    4588.2809   -1597.3642     3048.625 
  165000    356.32498    11815.313   -1597.3645     3048.625 
  166000      354.925     12088.93   -1597.3604     3048.625 
  167000     355.0696    12269.898   -1597.3548     3048.625 
  168000     386.3877    15654.208   -1597.3606     3048.625 
  169000    326.41002    25176.404   -1597.3664     3048.625 
  170000     373.5401    14593.209   -1597.3646     3048.625 
  171000    327.90754    12646.526   -1597.3564     3048.625 
  172000    379.70015    9428.9426   -1597.3704     3048.625 
  173000    358.24009    15607.802   -1597.3656     3048.625 
  174000    365.57895    9175.8219   -1597.3615     3048.625 
  175000    377.26614    4703.5394   -1597.3634     3048.625 
  176000    391.15825    7705.9742   -1597.3634     3048.625 
  177000    353.63041    13451.715   -1597.3622     3048.625 
  178000    356.14994    11821.216   -1597.3643     3048.625 
  179000     360.4668    10692.032   -1597.3643     3048.625 
  180000    345.34135    13105.133   -1597.3635     3048.625 
  181000    383.14152    3684.5049   -1597.3614     3048.625 
  182000    342.65912    14043.358   -1597.3615     3048.625 
  183000    379.92536    10861.996   -1597.3619     3048.625 
  184000    365.81735    7746.7339   -1597.3596     3048.625 
  185000     381.1178    14628.974   -1597.3631     3048.625 
  186000    375.74183    10829.226   -1597.3616     3048.625 
  187000    346.51595    11863.554   -1597.3546     3048.625 
  188000    373.76281    12813.262   -1597.3686     3048.625 
  189000    324.19904    13148.087   -1597.3697     3048.625 
  190000     368.8261    10728.633   -1597.3578     3048.625 
  191000    348.06451    15222.286   -1597.3631     3048.625 
  192000    354.68081    11444.137   -1597.3615     3048.625 
  193000    340.38078    9283.8601   -1597.3635     3048.625 
  194000    362.95994    13567.668   -1597.3617     3048.625 
  195000    326.97376    20588.079   -1597.3572     3048.625 
  196000     351.9521    12288.355   -1597.3637     3048.625 
  197000    368.43284   -653.57536   -1597.3574     3048.625 
  198000    362.57219    18198.302   -1597.3703     3048.625 
  199000    346.45179    19885.183    -1597.362     3048.625 
  200000    365.85266   -248.87493   -1597.3587     3048.625 
Loop time of 1071.47 on 1 procs for 100000 steps with 240 atoms

Pair  time (%) = 1059.58 (98.8902)
Bond  time (%) = 0.022635 (0.00211251)
Neigh time (%) = 7.64455 (0.713461)
Comm  time (%) = 2.94302 (0.27467)
Outpt time (%) = 0.00313663 (0.00029274)
Other time (%) = 1.27809 (0.119284)

Nlocal:    240 ave 240 max 240 min
Histogram: 1 0 0 0 0 0 0 0 0 0
Nghost:    5847 ave 5847 max 5847 min
Histogram: 1 0 0 0 0 0 0 0 0 0
Neighs:    87850 ave 87850 max 87850 min
Histogram: 1 0 0 0 0 0 0 0 0 0
FullNghs:  175700 ave 175700 max 175700 min
Histogram: 1 0 0 0 0 0 0 0 0 0

Total # of neighbors = 175700
Ave neighs/atom = 732.083
Ave special neighs/atom = 0
Neighbor list builds = 1080
Dangerous builds = 0
#	run             	10000
	unfix 			1
#--------------------------------------------------------------------------
#kappa
#--------------------------------------------------------------------------
log 	log_kappa_${iseed}.lammps
log 	log_kappa_3.lammps
