	reset_timestep  	0
	fix 			1 all nve
	compute   		myKE all ke/atom
	compute   		myPE all pe/atom
	compute   		myStress all stress/atom virial
	compute   		flux all heat/flux myKE myPE myStress
	variable  		Jx equal c_flux[1]/vol
	variable  		Jy equal c_flux[2]/vol
	variable  		Jz equal c_flux[3]/vol
	fix       		JJ all ave/correlate $s $p $d c_flux[1] c_flux[2] c_flux[3] type auto file J0Jt_${iseed}.dat ave running
	fix       		JJ all ave/correlate 10 $p $d c_flux[1] c_flux[2] c_flux[3] type auto file J0Jt_${iseed}.dat ave running
	fix       		JJ all ave/correlate 10 100000 $d c_flux[1] c_flux[2] c_flux[3] type auto file J0Jt_${iseed}.dat ave running
	fix       		JJ all ave/correlate 10 100000 1000000 c_flux[1] c_flux[2] c_flux[3] type auto file J0Jt_${iseed}.dat ave running
	fix       		JJ all ave/correlate 10 100000 1000000 c_flux[1] c_flux[2] c_flux[3] type auto file J0Jt_10.dat ave running
	compute 		myDis all msd
	thermo_style 		custom step temp press vol c_myDis[4] v_Jx v_Jy v_Jz
	thermo			1000
	timestep		${dt}
	timestep		0.0010000000000000000208
	run			1000000
Memory usage per processor = 7.90665 Mbytes
Step Temp Press Volume myDis[4] Jx Jy Jz 
       0    314.63198    17060.623     3048.625  2.58265e-31  0.013352992  0.043595146 -0.0025386209 
    1000    365.21018    12659.408     3048.625    8.8196141  0.018507236  0.026334796  0.045109515 
    2000    365.89596    7012.8652     3048.625    21.684851 -0.029583506 -0.0022079909 -0.0032503218 
    3000    290.96473    23009.376     3048.625    23.546667 0.0022990531  0.051281842  0.043359576 
    4000    343.28894    9142.4668     3048.625    18.471549 -0.0080594569 -0.013066694  0.009016457 
    5000    381.72125    13693.953     3048.625    20.472548 -0.00024840692  0.027459498  -0.01452324 
    6000    331.29901    17353.982     3048.625      31.3427 -0.021986793 -0.050063592 0.0010814154 
    7000    331.86606    18324.412     3048.625    35.318231  0.026008787 -0.013569537  0.046005788 
    8000    350.00618     8120.763     3048.625    30.419632 -0.025233689  0.015237303  0.035113403 
    9000    359.36037    15878.974     3048.625    24.105746 -0.023002764  0.023216293 0.00024194317 
   10000    318.04191    15495.128     3048.625    22.996184  -0.01112715 -0.011609697  0.028163453 
   11000    325.28568    21018.159     3048.625    23.968691 -0.048183684 -0.039867396 0.0055927477 
   12000    362.99814    9952.0401     3048.625    19.126872 -0.019908085 -0.037784101 -0.030773427 
   13000    405.67866     8846.046     3048.625    14.772888  -0.04522183 -0.021481966  0.029234209 
   14000    367.65987     3665.963     3048.625    24.797982  -0.03804431  0.014334501 0.0018875697 
   15000    352.37796    14058.333     3048.625     34.98803 -0.019411686 -0.00044428969  0.016713427 
   16000    351.57386    10143.373     3048.625    30.482854 -0.035665168 -0.021625424  0.025087093 
   17000    357.72601    15549.137     3048.625    23.502291 -0.041922355 0.0029690982 -0.036567861 
   18000    333.07819    15755.273     3048.625    24.348758  0.058739577 -0.010706581 -0.016938964 
   19000    340.46713    15113.092     3048.625    25.659821 0.0027074733 0.0029780213  0.006173772 
   20000    325.21381    16938.237     3048.625    24.046741  0.029093876   0.03263008  0.010137835 
   21000     372.5126    7726.3359     3048.625    22.609648  0.019403815 -0.0048147497 -0.0095062518 
   22000    326.16164    19758.979     3048.625    24.597683  0.036529525 -0.0043872954  0.026288767 
   23000    353.56432    9917.6038     3048.625    32.234357 0.0013473386  0.015170309 0.0049015998 
   24000    376.25933    8639.0273     3048.625    32.487466 0.0030755427 -0.0057812595 -0.010697203 
   25000     328.0621    18253.093     3048.625    28.452077  0.012329709  0.028933544 -0.046180486 
   26000    334.11479    24003.977     3048.625    25.169824  0.032377883 -0.0093682168  0.065874889 
   27000    355.58683    12502.099     3048.625    29.052008  0.063550693  0.023437602 -0.0062183017 
   28000    357.29289    14638.942     3048.625    28.779506  0.030354927  0.019108745  0.030783064 
   29000    327.60984    19487.368     3048.625    26.833576  0.029690149 -0.016731162 -0.021161035 
   30000    390.00123     5887.225     3048.625    27.210226 -0.038892073 -0.0067155785  -0.02711329 
   31000    359.75839    8455.0252     3048.625    26.012165 -0.053122813 -0.046724048  0.015154361 
   32000    316.23574    16256.591     3048.625    23.133164 0.0048824334 0.0099792166 -0.00089274693 
   33000     358.2233    4360.9563     3048.625     23.97326  0.049047622 -0.0095646898 -0.040049025 
   34000    333.22072    16357.875     3048.625    29.028373 -0.022947386 -0.050412741 0.00050822924 
   35000    371.30918    9656.3261     3048.625    31.671325  0.026915948 -0.019486763 -0.053040875 
   36000    363.33717    5723.9161     3048.625    31.196204  0.010399912 0.0068285537 0.0021651379 
   37000    373.21459    9164.8103     3048.625    24.610352 -0.015803249  0.039110848 -0.027444967 
   38000    336.92414    12113.325     3048.625    24.725784 0.0058379922 0.0043934821  0.015345209 
   39000    372.02091    4433.9564     3048.625    33.958821 0.0081003012   0.02224336 -0.029534302 
   40000    335.40696    6454.3436     3048.625    34.246492  0.068669179 -0.0084798178 -0.013143319 
   41000    353.22272    15281.749     3048.625    27.953126 -0.0095569037 0.0034199436  0.014317081 
   42000    328.84939    19094.888     3048.625    23.962861 -0.028915731  0.018905287 0.0095860608 
   43000    359.46118    5743.6879     3048.625    24.692957 -0.011294571 -0.019977639 0.0093090352 
   44000    325.65509    15425.092     3048.625    27.863144  0.046323738  -0.05284905 0.0036795308 
   45000     302.6638    20732.901     3048.625    30.490175  0.019773848 -0.032006262   0.06561572 
   46000    332.78889    3173.6733     3048.625    31.590376  0.010298641 -0.0065009868   0.01644548 
   47000    358.13453    11806.428     3048.625    28.595267  0.078436782  0.019956887  0.041466554 
   48000    354.30677    11701.906     3048.625     24.52322 -0.0012851054   0.01429816 0.0042458994 
   49000    352.60994    6331.9811     3048.625     25.88499 -0.0021251473 -0.013435409 -0.0023969899 
   50000    362.10843    14180.079     3048.625    30.508021 0.0063120508 -0.049822493 0.0069491106 
   51000    380.31161    4390.0081     3048.625    30.682455 -0.0064734289 0.0071899052 -0.0010604781 
   52000    391.98197    6092.7787     3048.625    22.968509 -0.044849839  0.023230965 -0.00041986498 
   53000    368.45512    15166.018     3048.625    25.111569  0.022219924 -0.044225627  0.023989424 
   54000    344.18861     6151.385     3048.625    24.140346 -0.019768769  0.027068311 0.0049717896 
   55000    374.26268    11270.272     3048.625    21.421439  -0.01825498 -0.010179074 -0.00070531283 
   56000    342.86524    3044.9761     3048.625    25.452898  0.029546928 -0.0074027146 -0.026372459 
   57000     364.5178    10771.043     3048.625    18.036031  0.012996224 -0.032888265 -0.033251855 
   58000    363.95076    10916.485     3048.625    14.825945  0.034152108  0.013678217 -0.030466808 
   59000     325.0461    15676.479     3048.625    24.000066  0.019762497   0.01463251  0.046344343 
   60000    345.71105    14383.217     3048.625    20.939849 -0.0089648455 0.00062645042  0.048424196 
   61000    344.78843    4393.5533     3048.625    12.982833 -0.015731961 -0.041648029 -0.0017788589 
   62000    355.35889    9551.7464     3048.625    21.518984 -0.0051308091 0.0026144877  -0.01944468 
   63000    328.89351    22047.011     3048.625    23.267609    0.0100513 -0.025757792 -0.0032548454 
   64000    358.28374   -868.31595     3048.625    23.268027  0.028680204  -0.01015718  0.010793564 
   65000    366.53323    13499.101     3048.625    22.133808  0.021658368  0.038682014 0.0020306229 
   66000    363.85634    2231.0273     3048.625    17.923675   0.01530418  0.029191819  0.022144696 
   67000    344.93669    16651.949     3048.625    15.115881 -0.033112328 -0.0057689717 0.0064791245 
   68000    331.37998     11247.47     3048.625    19.313794 0.0063673559 0.0034738892   0.02615805 
   69000    346.51935    6478.1824     3048.625    27.276752  0.039713021  -0.04377776  0.014456681 
   70000       357.62    17111.306     3048.625    26.387498  0.070725596 -0.034829622  0.023769269 
   71000    392.61077    5378.0139     3048.625    15.727636  0.019313424  0.016596324 -0.026585595 
   72000    285.83124    15185.076     3048.625    14.945024 -0.024553866  0.029298804 0.0062988632 
   73000    367.46262    19680.399     3048.625     23.24214   0.02419523  0.023842683  0.020366825 
   74000    328.14247    1403.5756     3048.625    24.841751  0.012017075 -0.0010552901  0.011098001 
   75000    326.24476    14809.504     3048.625    25.321775  0.014604834  0.019501024  0.031392251 
   76000    366.91782    1468.7722     3048.625    34.090508  0.016254332  0.035297577  0.043561611 
   77000    342.03095    18430.582     3048.625     35.07661  0.029031188 -0.056580978 -0.017639544 
   78000    324.68801    11924.791     3048.625     28.71733 0.0079350472 0.0033182282   0.02410532 
   79000    356.69057    5664.9117     3048.625    25.471017  0.010178977  0.033915472  0.017407782 
   80000    331.59248     19747.06     3048.625    25.766216 0.0062303755 -0.0055238682 0.0060879638 
   81000    361.75561    2509.5287     3048.625    22.722983 0.0095440713  -0.02989348  0.061162031 
   82000    356.58714    17098.636     3048.625     20.46878 -0.067534003 -0.0071154343   0.04395923 
   83000    349.23449    10027.747     3048.625    26.839313  0.036638742  0.025268234 -0.055935639 
   84000    383.65401   -686.61168     3048.625    32.922639  0.012987638   0.01832367 -0.013584154 
   85000    362.72562    10289.124     3048.625    27.920577  0.013800306  0.043706208 -0.00028050006 
   86000    352.37421    14108.012     3048.625    21.696157 0.0045007655 -0.0018781287 -0.0099904427 
   87000    349.61029    1427.8396     3048.625    28.205406 0.0029769012   0.03817866 -0.061804047 
   88000    349.55509    7306.8748     3048.625    29.707422  0.012006996   0.03218805 -0.011048478 
   89000    347.13051    17473.267     3048.625     25.41842 -0.0075917414 0.0056780972 -0.010728289 
   90000    340.67393    2508.1478     3048.625     31.76168 0.0064896883 -0.028034394 0.0072979066 
   91000    348.78504     9216.191     3048.625    30.583002 -0.040252275 -0.036542974 -0.024150017 
   92000    343.55943    8192.6769     3048.625    23.302324 -0.012979287  0.023633703 -0.016844942 
   93000    332.57425    14247.998     3048.625    24.909654 -0.071208387  0.019262743 -0.0085820156 
   94000    354.97168    3949.5389     3048.625    32.785428 -0.011934544  0.027927091 0.0016854835 
   95000    349.26712    5120.2739     3048.625      32.3166 -0.0086771626 -0.028964327 -0.0029695162 
   96000    361.66179    11356.498     3048.625    20.959138  0.013687536  0.027444689 -0.015135783 
   97000    373.98096    9977.8393     3048.625     23.39469  0.040398285    0.0522514  0.013152616 
   98000    350.70802    5498.0966     3048.625    33.369228 -0.064209471  0.022798063 -0.015006144 
   99000    355.06863    9856.5764     3048.625    28.474934  0.014102329  0.030561007 0.0097588078 
  100000     336.4672    10431.844     3048.625    28.045212  0.036530625 0.00090113577 -0.021750767 
  101000    327.13238    15579.738     3048.625    31.671551 -0.0026621528 0.0011554884 -0.0013207581 
  102000     339.9423    12258.009     3048.625    26.103233 0.0020736671  0.043226907 -0.031552108 
  103000    349.70824    11322.803     3048.625    27.164714  0.017221295  0.013066714 0.0042920751 
  104000     358.4359    5054.5963     3048.625    32.354736  0.032458372  0.013228741 0.0084096664 
  105000    357.30424    6636.4425     3048.625    32.861939  0.058020548  0.022233986 -0.039163909 
  106000    356.91326    12640.168     3048.625    26.606516  0.054371075 -0.039511656   -0.0326381 
  107000    324.78021    7093.2681     3048.625    21.856366  -0.07534534  0.022705008  0.017101541 
  108000    350.18083    10025.633     3048.625    26.085437  0.017865713  0.051947673 -0.039686593 
  109000    334.52647     11917.44     3048.625      29.8804 0.0056413054  0.056029532  -0.03118703 
  110000    354.98466    9142.2743     3048.625    27.850586  0.034237401  0.027632521 -0.068697301 
  111000    359.87787    6795.8198     3048.625    26.726779  0.015089288 -0.0037716399 -0.034505164 
  112000    351.20194    10678.045     3048.625     26.92419   0.01831745 -0.0046427529   0.00662522 
  113000    346.14695    6969.6015     3048.625    27.238112  0.036895202  0.029133699  0.030652565 
  114000    327.44194    15730.761     3048.625    30.580673  0.010328586 -0.0083874763 -0.048036684 
  115000    341.30793    13100.768     3048.625    32.326734 0.0031971694  0.004798585 -0.018336884 
  116000    325.17476    16079.757     3048.625    31.368955 -0.040603088  0.032898647 -0.0055649485 
  117000    337.93077    13908.816     3048.625    29.954026  0.021204716  0.028318626  0.024998292 
  118000     335.4094    12623.016     3048.625    28.278354  -0.01429532  0.002856881 -0.053760458 
  119000    330.07066    13586.214     3048.625    26.594494 -0.010603112 0.0072756565 -0.048973261 
  120000    365.22606    6847.2528     3048.625    26.197364  0.026253769 0.0022029834 -0.033873039 
  121000    321.03485    14706.904     3048.625    27.966171  0.031164322 0.0075416669   -0.0228905 
  122000    351.13626    -2356.166     3048.625    30.871603 -0.020201535 -0.042069576 -0.019988187 
  123000    350.15776    17033.371     3048.625    33.227989 0.0092916438  0.037064712 -0.0017220599 
  124000    316.27847    15195.852     3048.625    34.538867  0.039776153  0.029196919  -0.03137852 
  125000    344.02057    8604.7012     3048.625    29.449902  0.050839792  0.020233805 -0.025597749 
  126000    362.33273    11529.718     3048.625    27.385482   0.01684202  0.036939535 -0.012258168 
  127000    355.26887    3513.1187     3048.625    33.105258  0.020747576 0.0064976086  0.035397909 
  128000    358.61984    5387.5181     3048.625    30.592345 -0.018429935  0.023626376  0.018209803 
  129000    322.88359    8065.9296     3048.625     22.84762 -0.020192413 -0.022746777  0.024244274 
  130000    342.72451    6978.3559     3048.625    26.000133 -0.0027807066 -0.0048186808 -0.0027555967 
  131000    361.47591     6595.632     3048.625    30.228639  0.010932124  0.027136585 -0.017058792 
  132000    363.52541    9974.2981     3048.625    26.903796 -0.021694613 -0.010911156 -0.013513507 
  133000    351.17293    3238.9435     3048.625    25.196757 -0.015411913 -0.037484812   0.04062959 
  134000    347.35342    11886.562     3048.625    30.173949  0.001993456 -0.014313256  0.018087186 
  135000    350.23922    4907.0866     3048.625    32.993078 -0.030353846 -0.020467782  0.056545476 
  136000    327.03998    16283.784     3048.625    29.359841 -0.027249373 -0.025753022 -0.023159949 
  137000    344.16002    9073.6405     3048.625    28.831903  0.021341645  0.016697561  0.024391178 
  138000    341.59743    6024.4389     3048.625    33.518129  0.012085005  0.018786193 -0.016157478 
  139000    349.65082    12762.635     3048.625    32.403661   0.01594915  0.014889603 -0.021272081 
  140000    349.23659     8858.325     3048.625     28.20179  0.044689093  0.003076724 -0.043163822 
  141000    315.46399    10925.635     3048.625    32.259213 -0.00064100861 0.00078351647 0.0024457292 
  142000    316.68865    21305.831     3048.625     36.37829 -0.007700706   -0.0119792 0.0073973378 
  143000    346.16625    6555.8382     3048.625    33.446533  0.025372907 -0.024722341  0.035581808 
  144000    326.54868    9741.8367     3048.625    25.794286  0.017425529 -0.0099951614  0.024673691 
  145000    355.06005    14119.807     3048.625    21.380542  0.022261317  0.036999033 -0.0017096834 
  146000    356.31244      5519.51     3048.625    24.525038 -0.034801785  0.011621323  0.018297576 
  147000    343.34454    2372.7446     3048.625    28.698041 -0.023600135 -0.015317465 -0.026522632 
  148000    332.41368    8203.3316     3048.625    28.183215 -0.0025815883 -0.048265904 -0.037160382 
  149000    365.23185    9776.7138     3048.625     27.87339 -0.0065256651 -0.0024477732 -0.0075652971 
  150000     357.1423    3016.0888     3048.625    26.475619 -0.031014659 -0.020947316   0.03672443 
  151000    344.38163    8867.2451     3048.625    23.771411 -0.016370592 -0.0028434771 -0.024140819 
  152000    349.22612    10275.704     3048.625    28.207723  0.036483617 0.0009542282 -0.0016473438 
  153000    364.74913    4737.2042     3048.625     32.76263 -0.0041319408  0.010361713  0.018875468 
  154000    343.93042    14524.481     3048.625    29.461582 -0.0086368491  0.017520347 -0.034979453 
  155000    356.29231    8973.1886     3048.625    29.703096  0.085450803  0.016478615  0.034247627 
  156000    349.07845    2741.4199     3048.625    29.756311  0.040772296 0.0063274764 -0.0061734576 
  157000    331.11291    7623.3202     3048.625    23.779494 0.0015353765 -0.0036267671 0.0013006731 
  158000    332.66401    9385.1904     3048.625    27.533133 -0.049615536 -0.0069362606 -0.027749773 
  159000    339.46419    9122.7132     3048.625    30.124732  0.010495704  0.016085196 -0.010905135 
  160000    342.22084    14222.828     3048.625    24.371193  0.017923775 0.0018556993  0.015296462 
  161000    321.84013    10995.715     3048.625    29.512646 -0.038125701 -0.0093537929 -0.0078419881 
  162000    358.26784    7944.4024     3048.625    33.661999 -0.0099773297  0.010422103 -0.0088225101 
  163000    316.50564    13882.146     3048.625    29.482719 0.0075055799  0.010933122  0.025822608 
  164000    351.09361    2544.4354     3048.625    26.170636 -0.014840011 -0.011552544 0.0083110812 
  165000      329.115    9179.2893     3048.625    30.722354 -0.0078235299 -0.0052405444 -0.019557614 
  166000    325.42208    15913.563     3048.625    31.082433 -0.015149234  0.013387183 -0.016175226 
  167000     363.1232    2433.6245     3048.625    25.659563 -0.0072138441 -0.030469353  0.020242808 
  168000    321.56336    6373.9643     3048.625    23.015568  0.030011669 -0.007612079 -0.026481863 
  169000    306.73951    20477.125     3048.625    28.145584 -0.028833205 -0.033077275  0.042069681 
  170000    318.55346    13021.436     3048.625    29.870586 0.0092132793 -0.0088887731  -0.02910782 
  171000    352.39983    6997.6494     3048.625    24.761816  0.022575832 -0.034401412 -0.022796696 
  172000    372.10306    4790.9266     3048.625    23.766687  0.038476365  0.023384562 -0.018160293 
  173000    357.82857    10215.889     3048.625    27.348186 -0.0019259387 -0.011045883 0.0079906902 
  174000    312.81891    12351.574     3048.625    25.241743 -0.046137126 0.0039680499  0.015123733 
  175000     290.5626     15822.66     3048.625    24.554108 -0.0013072559 -0.031994807  -0.01773041 
  176000     333.4968    10508.183     3048.625    30.245547 0.0064544417 -0.032514553 -0.020174439 
  177000    351.54667    7092.0624     3048.625    31.435477  0.013107927  0.002932464   0.01533029 
  178000    358.80357    5018.3868     3048.625    30.613033 -0.0070403858 -0.018604377 -0.022637941 
  179000    368.39028    3280.1486     3048.625    35.640961  0.017090945 0.0055574015 -0.045184438 
  180000    334.47762     12182.28     3048.625    28.288736  0.017648392 -0.003241466  0.010463152 
  181000    350.45676    4023.2434     3048.625    20.322132 -0.0029257038  0.019392849 -0.013306769 
  182000    368.10408    4202.0611     3048.625    23.943245 0.0056767304  0.018180136 -0.0021591971 
  183000    362.07846    14911.051     3048.625    25.224015  0.020123688 -0.00016134668 -0.0028217819 
  184000      353.612      15657.2     3048.625    30.950108  0.025241886  0.008673601 0.0015355644 
  185000    377.09204    476.04319     3048.625     28.64779 -0.034621847  -0.02632166 -0.0085974388 
  186000      372.303    3413.5139     3048.625     20.32627 -0.011261642 -0.0065220075  0.032950352 
  187000    358.49217    7911.8154     3048.625    27.693158  0.024916538 0.00024635796  0.014993345 
  188000     368.6287    5701.7111     3048.625     29.49901 -0.018175515 0.0061010195  0.021326232 
  189000    352.17688     3479.132     3048.625    31.696746 -0.011608856 -0.011774067  0.033347849 
  190000    369.67098    7377.3431     3048.625    32.841281 -0.061965865 -0.005791382 -0.020719165 
  191000    355.28197    4922.0316     3048.625    23.013575  0.079789206 -0.034193229  0.015143339 
  192000    350.31693    3374.7674     3048.625    26.833926  0.025318949  0.015161852  0.068220386 
  193000    351.42925    11451.515     3048.625    26.893074 -0.0059137906 -0.0031301662   0.01851208 
  194000     359.0827    2857.4148     3048.625    28.540422 -0.0062387379 -0.013250389  0.009979591 
  195000    367.19695    7652.4324     3048.625    32.682897 -0.017266327  0.021419737  0.015378398 
  196000    378.83111    6306.3265     3048.625    26.031907  0.014794638 -0.042939526 -0.0033296455 
  197000    343.62743    520.00529     3048.625    26.161608 -0.014078442  -0.02540388 -0.019442732 
  198000    338.28032    8896.2592     3048.625    32.559858  0.012773509  -0.01250591 -0.019999168 
  199000    358.48725    9678.1706     3048.625    29.606546  0.029222124  0.025087702 -0.026654606 
  200000     349.8919    3158.2096     3048.625    29.425279 -0.011340392 0.0044863055 -0.013263779 
  201000    363.24544    7371.2604     3048.625     32.90243 -0.023743475  0.013688557 -0.025703669 
  202000    333.23966     10632.25     3048.625    30.143356  0.027755606  0.017785945  0.049314024 
  203000    345.64611   -50.507566     3048.625    30.421537 -0.018868565 0.0018049843  0.026433612 
  204000    362.88204    4729.4275     3048.625    34.178462  0.020497512  -0.04745827 -0.058110744 
  205000    356.55321    12119.542     3048.625     29.19033  0.051787942 -0.018151519 -0.033930446 
  206000    370.06016     2024.444     3048.625     30.86883 -0.007469905 -0.028712113  0.038407098 
  207000    368.13579     5575.559     3048.625     33.38273 0.0037021836 0.0066391929   0.03727578 
  208000    353.32635    8437.4671     3048.625     28.33678 -0.045931199 0.0095790414 -0.017260883 
  209000    346.89309    3599.3343     3048.625    30.370162 -0.017621137 -0.0015745493  0.029720052 
  210000    353.34154    3999.7876     3048.625    34.479754 -0.016575476  0.017224982  0.050420532 
  211000    348.98846    8313.0906     3048.625    28.216617 0.0028301261 -0.0025004426  0.059269123 
  212000    350.06994   -369.17063     3048.625     26.69586 -0.0046151434  0.012958463   0.02597855 
  213000    343.70583    7769.5119     3048.625    33.705229 -0.043154239  0.035295957 -0.070462798 
  214000       320.68    9311.4361     3048.625    33.463738 0.00078002608  0.015076504 -0.0024130629 
  215000    333.36636    8330.1937     3048.625    26.603481 -0.012704767 0.0027412064 -0.018158646 
  216000    351.08323    7461.1934     3048.625    25.950582  0.015072255  0.011575704  0.045797231 
  217000    359.12969    7725.5333     3048.625    31.837848 0.0093674994  0.031627993   0.01501714 
  218000    318.06363    14433.683     3048.625    33.899607  0.023132066  0.032905987 0.0069135457 
  219000    327.03796    13386.806     3048.625    31.571179 -0.0047908023  0.022520244 -0.026926247 
  220000    304.52343    6910.6628     3048.625    28.197623 -0.032759503 -0.015232153 -0.014878334 
  221000    312.23863    11077.869     3048.625    29.074333 -0.0086543551 0.0091723951 -0.028806274 
  222000    313.40465    16839.452     3048.625    34.605163 -0.0081061721 -0.029597527 -0.016979459 
  223000     317.1994   -33.951106     3048.625    34.982625 -0.011648662  0.025865373  -0.02205764 
  224000    320.89444    9696.4115     3048.625     31.53631 0.0043976106 -0.0083795611 -0.0028066374 
  225000    307.98665     15348.47     3048.625    28.963363 0.0086747912 -0.018457246 -0.062728298 
  226000    342.92632    11662.838     3048.625    30.580326 -0.0052957943 -0.010598393  0.035897893 
  227000    321.93231    5965.1447     3048.625    34.427158  0.031712874  0.025492702 -0.034525858 
  228000    342.43234    14488.579     3048.625    34.873019 0.0039960065 -0.023120322  -0.02634251 
  229000    329.14819    8406.0153     3048.625    29.918981  0.012000357 -0.0089099745  -0.01526783 
  230000    346.93504     16308.29     3048.625    28.335912 -0.00083489576 -0.033250525  0.038278569 
  231000    339.97678    4440.3293     3048.625    29.537766  0.018562076  0.023054509  0.035226279 
  232000    347.51846    8795.3141     3048.625     30.99845 -0.0036792154 -0.055967329 -0.040494351 
  233000    347.58749     14952.19     3048.625    29.632214  0.028060152  -0.01198101 -0.022237822 
  234000    354.51246    3911.8252     3048.625    30.589759 0.0054818775 -0.037964119 0.0042167376 
  235000    354.73759    11131.952     3048.625    33.779143 -0.0075169672 -0.022583373  0.018164727 
  236000    357.37403    5901.6418     3048.625    35.262778 0.0093077323 -0.00014621779 -0.014334556 
  237000    357.97491    2683.3266     3048.625    33.200256 -0.025867197 0.0080914906  0.023424792 
  238000    326.43381    13948.329     3048.625    29.883186  0.017594165 0.0021782292 -0.012170417 
  239000    362.14103    637.84405     3048.625    33.278209 -0.021201355  0.013003759 -0.033086995 
  240000    352.84741    6653.1556     3048.625     36.04538 -0.0039891887 0.00057145711 -0.061742607 
  241000     335.7674     8662.617     3048.625    35.398238 0.0081862443 -0.024629773  0.002292194 
  242000    318.77161     12714.42     3048.625     31.05054 -0.00021531329  0.021313812 -0.018334411 
  243000    308.57475    1490.8984     3048.625    28.943775  0.018360153 -0.0070804793 0.0021717696 
  244000     321.6182    13083.235     3048.625    31.728119 0.0025160215   0.06656387  0.032335304 
  245000     328.6841     10288.52     3048.625    35.233497 -0.058379115  0.042325167 -0.00075938104 
  246000     337.6069    10577.873     3048.625    34.497616  0.029503771  0.050004695  0.012061548 
  247000    355.85436    7505.4942     3048.625    30.108168  0.023653248 -0.0016612313  0.029191665 
  248000    339.86777    5085.7161     3048.625    27.056894  0.027645586 0.0030351574 -0.0026109942 
  249000    360.57554    6439.2151     3048.625    26.330551  0.040250764 -0.025737513  0.023560473 
  250000    350.91047    4678.3785     3048.625    25.986667  0.041133124 -0.035818044 -0.0051035363 
  251000     324.6064    7509.0686     3048.625    25.614996 -0.027810452 -0.030428233 0.0025962097 
  252000    315.82731     11395.17     3048.625    28.919523  0.011728162 -0.016027391 -0.0028424392 
  253000    317.89027    9772.3935     3048.625    29.484497  0.016875845 0.0016428415  0.025189768 
  254000    323.49836    3628.6017     3048.625    22.968328  0.007260494  0.008309686 -0.00055042265 
  255000    337.24498    11191.261     3048.625     24.46321 -0.038433014 -0.080755065 -0.059319376 
  256000    374.61809    1565.0851     3048.625    32.336895 -0.038550277  0.026551034  0.015662744 
  257000    356.13602    13079.064     3048.625    32.725156 -0.006897007 -0.0013784093 -0.029791684 
  258000    353.93775    4866.5027     3048.625    27.798202  -0.01543425 -0.026844214 -0.0032791591 
  259000    352.52674    2597.7236     3048.625    26.827881 -0.0056121199 -0.098947431 -0.0046069982 
  260000    354.45577    9258.2884     3048.625    23.746441  0.033813225  0.009764438 0.0050964613 
  261000    350.91381    10388.665     3048.625    20.431043  0.025116002  0.011874936 -0.0094992793 
  262000    331.72235    7596.0171     3048.625    26.741468 -0.033255883 -0.046562034 0.0092245403 
  263000    336.50996    544.09249     3048.625    29.601604 -0.0055095927 -0.027045473 0.0082067002 
  264000    311.80257    20227.986     3048.625    25.139937 -0.0062052209 -0.0041538192 0.0013329791 
  265000    303.09501    4417.3016     3048.625     25.30118 -0.015004269   0.05473419  0.025323573 
  266000    344.11531    13818.242     3048.625     26.88111   0.03409801 0.0045588881 0.00080754768 
  267000    330.61626    12993.303     3048.625    23.023801 -0.0011891629 -0.00091941047 -0.0021640736 
  268000    316.58961    12971.301     3048.625    21.726575 -0.016198113 -0.020685787 -0.016570108 
  269000    333.62667    1617.3132     3048.625    29.940101 -0.0025998399 -0.028579444  0.032289027 
  270000    342.99009    6020.3141     3048.625    31.163041  0.027942776 -0.00024148732  0.020604129 
  271000    320.34039     10057.64     3048.625    29.830422  0.016116802 0.0032130462 -0.028399518 
  272000    315.73492    15572.658     3048.625    32.082766  -0.03308637  -0.01916804  0.018220734 
  273000    348.95578    7030.7319     3048.625    32.181218 0.0061305646 -0.045833576 -0.026067055 
  274000    362.07458    5125.2741     3048.625    28.816773  0.004386842 -0.0077627775 -0.0024237448 
  275000    316.18527     13630.06     3048.625    25.419299 -0.027706775 -0.011767767 -0.035349778 
  276000    348.38063    5148.8104     3048.625    28.484182  0.074815272 0.0044703855 -0.036600041 
  277000     342.7296    3686.4675     3048.625    32.055696  0.013919446 -0.0057194299  0.024710845 
  278000    306.77692    12075.345     3048.625    34.582286 -0.0083854111  0.020148851 -0.024665516 
  279000    328.13534   -1243.6075     3048.625     34.06433  0.015310951 -0.010288553 -0.015034682 
  280000    291.57266    18274.527     3048.625    31.734012 -0.010885719  0.029747775  0.012138637 
  281000    333.76291    7456.3574     3048.625     27.18409 0.0049959265 -0.020811899 -0.015885374 
  282000     358.9941    4518.3058     3048.625    21.863497 -0.0067992058  0.018777489 0.0049782224 
  283000    332.96459    8374.3481     3048.625    21.999785   0.04464378  0.027445404  0.014806164 
  284000    353.78058     1873.354     3048.625    25.570071  0.036862092 -0.034881533 -0.005691615 
  285000    336.60077    11658.007     3048.625    31.314135  0.018922561 -0.0059093883 -0.0007661964 
  286000    346.81014   -3520.2934     3048.625    33.602671  0.015069214 -0.017633758 -0.0049329423 
  287000    348.89143    10973.273     3048.625    30.256563 -0.010539948 -0.027719337 0.0076421919 
  288000    318.63547    9084.2152     3048.625     27.66345 0.0080370812  -0.04205958 0.0048380605 
  289000    318.72998    8423.1974     3048.625    27.596173  0.011855766 -0.0063970891  0.035610707 
  290000    328.45084    10046.301     3048.625    31.428641  0.004760286 -0.015650199  0.026768042 
  291000    316.71627    7110.9657     3048.625    32.538309 -0.0033550166   0.03007847 -0.014812109 
  292000    345.04656    3345.3442     3048.625    32.182811 -0.055774574 -0.013697393  0.013604168 
  293000    328.99181    3138.8146     3048.625     28.21373 -0.015992602 -0.036745661 -0.016126084 
  294000    349.83511    8770.9374     3048.625    22.154569  0.034821497 -0.00077440644  0.017027977 
  295000    336.80037    7483.4493     3048.625     19.93009  0.011020126  0.018774499  0.020326559 
  296000    327.08449    474.02941     3048.625    23.833526 0.0034555817 -0.0099863593 -0.026918022 
  297000    317.61787     12982.22     3048.625    29.163093 -0.0075197162 -0.0042159762 -0.015692262 
  298000    341.23646    15777.501     3048.625    32.345909  -0.01759018 -0.0060206713 -0.018874896 
  299000    352.29049    4465.6788     3048.625     28.26601 -0.017199832 0.0042177297 -0.018267455 
  300000    343.65812    5607.3052     3048.625    20.336031 -0.002965045 -0.037725561 -0.016303071 
  301000     323.5035    7962.5575     3048.625    19.785836 -0.025234708  0.017174062 -0.057707629 
  302000    327.59754    7525.8908     3048.625    26.296994 -0.020748372  0.055904346 -7.0465241e-05 
  303000    326.47074    7790.9905     3048.625    32.009679  0.002712363  0.015255271  0.029803758 
  304000    322.40791    7068.6278     3048.625    30.385781  0.010080962  0.031570465  0.046421764 
  305000    355.66009    7107.8563     3048.625    21.287205  0.026867491  0.010606949 -0.020320114 
  306000    348.76429     4322.009     3048.625     12.57475  0.015692909 0.0090872624 -0.036386002 
  307000    309.25615    12630.538     3048.625    11.908633  0.036731939 -0.020484898 0.0032680661 
  308000    319.43805    3251.9115     3048.625    14.515556 -0.017136968 -0.0010583056 0.0094386817 
  309000    319.98877    10674.389     3048.625     21.53424 -0.00061145298  0.066416096 0.0098766979 
  310000    331.79789    9394.7066     3048.625    29.989312 -0.021697847  0.043016863  0.026236996 
  311000    327.12646    6462.7535     3048.625    35.070811  0.019005194  0.027152137  0.010353831 
  312000    320.59886    12909.476     3048.625    34.811941  0.025358107 -0.0026947737  0.025591982 
  313000     324.9872    5076.0529     3048.625    32.745479 -0.023673758 0.0069175611  0.042687981 
  314000    330.26397    8900.8328     3048.625     29.10782  0.027883976   0.02017997 0.0017850624 
  315000     338.7518    7377.8006     3048.625    27.618104 -0.024247378 0.0014536752  -0.01633907 
  316000    351.71522    427.83389     3048.625    31.662882 -0.0028825276  0.035313635   0.01386262 
  317000     338.4031    12923.918     3048.625     35.50573  0.019319937 -0.013101849 -0.0019343642 
  318000    342.38787    7817.7996     3048.625    34.849746 -0.018485029  0.016993128  0.016631309 
  319000    327.17242    8187.2391     3048.625    31.205721  0.011962254  0.069533822 0.0032692519 
  320000    340.62314    10348.684     3048.625    27.936943  0.018960219  0.048209907 -0.020018747 
  321000    312.91507    3980.0332     3048.625    26.482213  0.030034195  0.011031755 0.0050004944 
  322000    321.55934    11330.364     3048.625    27.109277 -0.0023333908  0.046721795 -0.015431809 
  323000    322.16472    6374.6365     3048.625    31.480521 -0.017049091  0.055558081  0.011211804 
  324000    316.79229    8372.8349     3048.625    34.198964 -0.050748109 -0.0010001179  0.018252769 
  325000    329.65817    11523.245     3048.625    33.321092 -0.022357128  0.017274765  0.014631108 
  326000     352.4822    14135.999     3048.625    30.345497 0.0043036283 -0.050028568 -0.027301328 
  327000    332.50246    2308.9994     3048.625     28.73554 -0.0076268393 -0.011825133 -0.027894937 
  328000    356.98155    5583.2477     3048.625    28.182648 -0.051014745 -0.019865576 -0.017978684 
  329000    326.85648    9031.0232     3048.625      27.8103  0.070778462  0.012476409 -0.021676129 
  330000    340.76668    7800.1423     3048.625    26.595198 0.0048880739 -0.027844496  0.033490013 
  331000    329.81954    2232.8371     3048.625    28.224089  0.066925473  0.012220717  0.046453589 
  332000     326.4236    7178.7016     3048.625    32.421055 0.0045787343 0.00069569286 -0.0050266536 
  333000    344.13715    14051.714     3048.625    33.415828 -0.0060167602 -0.037360818  0.020505338 
  334000    328.98879    8956.2683     3048.625    31.392887    0.0161631  0.023276671 -0.021078778 
  335000     349.1213    3375.6085     3048.625    28.535755 -0.011641288 -0.0081251198  0.018252767 
  336000    337.27617    6692.0961     3048.625    27.097968 -0.043851957 -0.0061966564 -0.038254599 
  337000    323.88424     8181.364     3048.625    28.026603 0.0052460987 -0.0039376324 0.0027926689 
  338000    362.59286    5894.8346     3048.625    30.003705  -0.04576042 -0.0057425222 -0.061803501 
  339000    353.99606     6414.867     3048.625    32.403914 0.0082936918 0.0025863762  0.046469068 
  340000    359.16187    6142.9905     3048.625    34.341193 0.0007377068  0.062235102 0.0030437839 
  341000    329.56715    4251.1567     3048.625    33.783561 0.0066566188 -0.0017338608 -0.027198498 
  342000    336.84984    2406.6054     3048.625    30.588044  0.024836626 -0.027057211 -0.0014852952 
  343000    350.61318    11747.715     3048.625      28.8325 0.0026507318 -0.022612655 0.0041602339 
  344000    339.94428     7214.749     3048.625    28.708503  0.010300041  -0.01043953 -0.00055976984 
  345000    344.69658    1783.1781     3048.625    27.351822 0.0043210421  0.013221885  0.023068884 
  346000    342.39189    -153.6139     3048.625    25.680349 -0.034334449  0.017680716 -0.026569768 
  347000    342.84818    1951.0587     3048.625    26.015628 -0.00044599212  0.011330101  0.033258742 
  348000     332.3287    2848.4799     3048.625    27.655738 -0.025041383 -0.028717626 -0.012332436 
  349000    321.71448    13828.443     3048.625    31.009274   0.01838201 -0.037893184 0.00046527337 
  350000    324.41867    9297.0823     3048.625    33.281889 -0.015122957  0.032324038  -0.02210034 
  351000    329.04605    8165.5403     3048.625     33.41771 -0.008726926 -0.012372444  0.045744683 
  352000    305.66944    11575.363     3048.625    34.028081  0.036547926 -0.014081143 -0.010350775 
  353000    337.83848    8992.6716     3048.625    31.065697  -0.02521636 -0.016639414  0.021902367 
  354000     333.5055    5061.6941     3048.625    24.839644 -0.039890657 -0.0063589588  0.018983051 
  355000    331.42417    5399.8678     3048.625     20.73122  0.035775686  0.012885969 2.5948353e-05 
  356000    340.71765    14179.403     3048.625    22.539675    0.0282979  0.015889923 -0.028622815 
  357000     322.6894     3084.505     3048.625    28.667812  0.042629466  0.040593767 -0.032556568 
  358000    334.61652    3293.2983     3048.625     34.04873   0.02016226 -0.021735789 0.0034512281 
  359000    324.34572    15045.985     3048.625    36.407905  0.021149236  0.014456501 0.0055202866 
  360000    330.71911    1775.3715     3048.625    35.325405 -0.040912387 -0.020833935  -0.04323588 
  361000    322.13234    10146.532     3048.625    31.245311 -0.0043228621  0.013716027 0.00013104382 
  362000    303.02899     17537.22     3048.625    27.416635  0.020945149  0.012463726  0.036019942 
  363000    306.70976    9370.1826     3048.625    22.988958  0.021369591  0.011040649 -0.026298068 
  364000    306.67213    12199.313     3048.625    21.032567 0.0069169128 -0.023592864 -0.026499554 
  365000    347.18608    3329.0418     3048.625    22.769715  0.023911353 -0.0080786949 -0.035695595 
  366000    360.44187    7798.1662     3048.625    25.569457 -0.012061257 0.0093928134 -0.047253056 
  367000    337.43591    10472.204     3048.625    27.752819  0.025276914 -0.0057774516 -0.00026300826 
  368000    316.00043    8343.5039     3048.625     31.73363 -0.040404394 -0.048852562 0.0045664442 
  369000    313.54883    15250.403     3048.625    32.572524 0.0016066018 -0.052654752  0.052628861 
  370000    325.27073    8542.1232     3048.625    28.966672 -0.027381194  0.028632374 -0.010307597 
  371000    344.29766    5314.3187     3048.625     24.48895  -0.02740773 -0.012010315 -0.055231904 
  372000    299.20284    13606.824     3048.625    22.267762  0.010587828 -0.025959585 0.0017888324 
  373000    328.95809    10441.032     3048.625    20.664931  0.031209502  0.008721435 -0.014430058 
  374000    332.22442    11134.617     3048.625    21.535627 -0.049077598 -0.031485076  -0.04438977 
  375000    339.84403    11847.128     3048.625    24.214901 -0.021179549  0.028996349 -0.0083814274 
  376000     323.1076    4536.9252     3048.625    24.916259  0.024444507  0.011407884  0.021060738 
  377000    335.41858    6173.4352     3048.625    26.079309 -0.025718842 0.0046124931 -0.0030220336 
  378000    327.36215    13494.795     3048.625    28.508055 0.0070751341  0.013958135 -0.032329064 
  379000    332.40845    4893.8006     3048.625    28.576889  0.024137396   0.02531157 -0.055614737 
  380000    334.80987    5941.4906     3048.625    27.349503  0.035558812 0.0053574927 0.0031411397 
  381000    326.14355     10001.73     3048.625    27.269851  0.019643232  0.035921262  0.022481448 
  382000    312.81455    6774.8303     3048.625    26.080039 0.00063456316 -0.0084477579 -0.022648467 
  383000    326.85772    3452.0913     3048.625    23.177347  0.046292394  0.038949716  0.046365375 
  384000    318.78301    9645.9123     3048.625    24.057022  0.033950165  -0.02544403  0.013775945 
  385000    329.54764    8738.7011     3048.625    24.776197  0.031649232 -0.066029878 -0.022119097 
  386000    303.49612    7820.9398     3048.625    26.557656 -0.031316515 -0.054378347 -0.016063162 
  387000    318.22045     4234.674     3048.625    29.731764 -0.0093825419 0.00023966965  0.011195574 
  388000    320.61402    7963.9158     3048.625    32.626861 -0.012066616 -0.0096830611  -0.02042634 
  389000    334.95651    10326.302     3048.625    32.696217 0.0077330383  0.022830248 -0.049706356 
  390000    337.64311    2074.9127     3048.625    32.264298  0.011496608 0.00064410486 -0.013744915 
  391000    334.46465    9710.3694     3048.625    32.230315 -0.019239795  0.010159549 -0.013627208 
  392000      334.143    8086.4525     3048.625    32.365642 -0.031246356 -0.0013564539 -0.0023515321 
  393000    338.74667    7244.8981     3048.625    31.685982  0.015316489 0.0045978241 -0.042273711 
  394000    336.18478    5664.8767     3048.625    31.698348 -0.022302646 -0.0096076597  0.035582204 
  395000    335.97911    11434.778     3048.625    33.694036 0.0050675446 -0.020473816 -0.016845233 
  396000    328.52936     9235.727     3048.625    36.019562 0.0045994863  0.021119561 -0.0080825287 
  397000    310.99844    2288.7398     3048.625    33.397792 -0.0076133596 0.0039309754   0.01261723 
  398000    341.26349    7394.3945     3048.625    30.658766  0.019697922  0.019138486 -0.035056496 
  399000    330.81295    8387.1718     3048.625    31.802586  -0.01681589 -0.022947986 -0.0053924043 
  400000    326.16157    2351.2649     3048.625    31.363958  0.019668767 0.0087447738  0.026875674 
  401000    325.39173    4169.3329     3048.625    24.770552 -0.002477661  0.044693053  0.043453022 
  402000    346.19056    6834.4558     3048.625    20.989326 -0.004006541  0.038932409  0.057955779 
  403000    341.04239    5910.7258     3048.625    23.808862 -0.0094470682 0.0023252498 0.00027669686 
  404000    329.11478     4972.909     3048.625    27.598687  0.010007046 -0.023103244 -0.0074133905 
  405000      345.462    5219.8077     3048.625    29.267021  0.030997302 -0.0059701245 -0.010883975 
  406000     347.4333    12977.212     3048.625    30.176126 -0.0054383277 -0.018147326  0.048477578 
  407000    341.26541    4766.3713     3048.625    28.552581   0.01216419 -0.023550563  0.025239544 
  408000    340.52613   -5079.0951     3048.625    20.711701 -0.050573907 -0.015386178  0.017401051 
  409000    342.55305   -1337.8783     3048.625    17.029731 -0.0069277531 -0.033832471 -0.016309792 
  410000    355.28095    11373.471     3048.625    24.597924 -0.00071082114 -0.0035127337 -0.0053275811 
  411000    323.14765    11148.834     3048.625    33.750447 -0.0080908792 -0.048860506 0.0095000841 
  412000    337.60911    6357.4565     3048.625    32.333315  0.015217092  0.060415994  0.013647385 
  413000    344.33602   -457.45426     3048.625    22.908863 0.0016212205  0.026862872 -0.025025349 
  414000    354.54337   -786.73447     3048.625    19.795006    0.0142946 -0.0045763353  0.010985689 
  415000     335.5028    10967.056     3048.625    22.450225  0.039616657 -0.0040605067 -0.0086680977 
  416000    335.99145    9002.2233     3048.625    20.804655 0.0036629698 -5.4030418e-05  0.016540151 
  417000    357.40198   -547.15123     3048.625    20.794228 -0.023353997 0.0010801434 -0.014674329 
  418000     330.5907    1675.9491     3048.625    26.422173 -0.027926516  0.042736336 -0.0041288559 
  419000    328.44018    6872.0864     3048.625    27.558354  0.015167014  0.012031773  0.019336529 
  420000    331.67208      2708.99     3048.625    22.849375  0.013776912  0.033845203  0.022589564 
  421000    333.47614    2413.6785     3048.625    23.092957  0.013939859 -0.037770805 0.0086324005 
  422000    338.00535    10748.505     3048.625    28.423489 -0.012414038  0.016895497 -0.011138944 
  423000     348.9889    2348.5137     3048.625    32.007182 -0.015361794 -0.035319235   0.03304861 
  424000    333.14826    2643.8845     3048.625    27.808752 0.0031970017  0.042554403 0.0093893911 
  425000    344.92596    7169.8639     3048.625    20.836064 -0.0085107248  0.029986009  0.027900727 
  426000    344.71223    5149.4838     3048.625    21.809865  0.044653661 0.0020197383  0.043999945 
  427000      346.918    3953.3527     3048.625    29.877046  -0.01790597  0.044621895 -0.030085423 
  428000    342.64499   -1277.0417     3048.625    35.453338  0.023205253 -0.028050427 -0.034692231 
  429000    328.75132    5430.7042     3048.625    32.483393 -0.017674631 -0.0063763534  0.017622967 
  430000    318.58014    8101.3631     3048.625    24.351247  0.012559434 -0.0050394123 0.0050672469 
  431000    335.04478    5709.7847     3048.625    20.918383  0.036465939 -0.0071777196  0.018901774 
  432000    338.79844    5062.5797     3048.625    23.897987 -0.0056502883 -0.0096693588 0.0056838355 
  433000    323.19369    8727.7605     3048.625    30.917664 0.0027791492 -0.023673407 -0.026465949 
  434000    340.36727    12745.936     3048.625    34.514481 -0.0031183598 -0.010999768 0.0086782609 
  435000    315.75483    4846.0617     3048.625    32.490343  0.036178697 -0.0058558812 -0.011908962 
  436000    336.57698    6679.4744     3048.625     27.69831 -0.021474793 -0.0071973171 -0.024523775 
  437000    325.04692    7556.8299     3048.625     25.03603 -0.056911331  0.045005488  0.024046185 
  438000    348.70392    4678.5381     3048.625    25.776877 -0.010826366 -0.023080042  -0.03776143 
  439000    328.34863    11985.077     3048.625     27.07837 -0.034071357 0.0055403755 0.0055532442 
  440000    314.81219    3511.2682     3048.625     26.13608  0.040875795 -0.017795289  0.029852302 
  441000    323.31823    9381.0022     3048.625    25.861795  0.008581117 -0.023218231 -0.0093389995 
  442000    326.32634    5682.7767     3048.625    28.367074 0.0049969822  0.035581208 -0.015477514 
  443000    314.00972    4583.3181     3048.625    31.879255  0.054718835  0.029495858  0.018581668 
  444000    337.21551    3040.8941     3048.625    32.689866 -0.0022590355 0.0039541002 -0.011370013 
  445000    334.78259    3174.8001     3048.625    30.051391   0.03982581 -0.074165906  0.011142412 
  446000    329.10945    11513.813     3048.625    25.942461  0.023753686 -0.0020863478 -0.016214406 
  447000    332.18074     13828.35     3048.625    23.384257  0.025453069 -0.0055243843 -0.010563838 
  448000    337.69896    10270.392     3048.625    24.170121  0.044839953 -0.0090203672 0.0081303443 
  449000    299.02849    1604.4892     3048.625    26.169418 -0.0046427742  0.015135085  0.030640792 
  450000    308.79571    10361.309     3048.625    26.504782 0.0014783039  0.011099849 0.0079191104 
  451000    308.85703    11940.763     3048.625    26.446579  0.027206434   0.05855971 -0.0045808863 
  452000    327.73759    2594.3053     3048.625    27.609875  0.014043186 -0.0080721718 -0.011097154 
  453000    332.81653    10356.942     3048.625    28.450071  0.041884158 -0.034914458 -0.0042231473 
  454000    329.02181    10412.013     3048.625    25.048489 -0.021907464  0.014291156   0.05199847 
  455000    340.63864   -4298.8659     3048.625     21.64649  0.041933593 0.0058724912  0.038204979 
  456000     335.1102    10145.539     3048.625    24.309003 -0.049619088 -0.041864433  0.049225319 
  457000    347.30559    12080.216     3048.625    31.636468  0.020663206 -0.024415049  0.058992768 
  458000    316.18073     5279.563     3048.625    31.592972  0.020118075  0.031689527 -0.0067717826 
  459000    329.45857    5078.2755     3048.625     22.79645  -0.01129318 -0.019542548   0.04103001 
  460000     330.8278    4837.7463     3048.625     20.77877  -0.02319513   0.00788616 -0.0035416077 
  461000     313.6416    6725.6033     3048.625     27.25552 -0.032925885 -0.025921607 -0.0097837685 
  462000    329.51928    10572.967     3048.625     33.02954  0.022131443 -0.0061350922 -0.0055020077 
  463000    329.98265    -485.9505     3048.625    30.746583   0.04684212 -0.011401942 0.0093199041 
  464000    320.06773    11216.298     3048.625    24.450431   0.01918581 -0.0054942397  0.002426051 
  465000    338.41678    11009.156     3048.625    21.830985   0.03035057 -0.0093755352 -0.023232923 
  466000    340.62542    3884.8149     3048.625    22.931009 -0.014604292 0.0014176515  0.010091907 
  467000     340.0874    4083.2476     3048.625    23.482581 -0.0067565899 -0.009028497 -0.00071142969 
  468000    333.29993    8548.1352     3048.625    23.904867 -0.027395907 -0.00025108916 -0.008527757 
  469000    327.16031    2028.8529     3048.625    24.874321 0.0080058209 -0.013671062 -0.069362139 
  470000    339.63015    4631.2636     3048.625    25.853516 -0.037665145 -0.012015188 -0.021277491 
  471000    325.36151    11702.438     3048.625    25.185057 -0.013452776 -0.056342269  0.012995116 
  472000    345.37759    4768.1841     3048.625    24.066346 -0.0088137325  -0.01864696 -0.012141634 
  473000    318.86123     2796.065     3048.625    22.222641 0.0026287476 -8.745749e-05 -0.022391043 
  474000    310.39204    769.17243     3048.625    21.453664 -0.026952867 -0.0053720812 -0.014548115 
  475000    312.69995    11944.054     3048.625    25.202609 -0.032459028 -0.043347762 -0.0041482829 
  476000    315.48972    7823.9611     3048.625    30.845147 -0.0091895073 -0.027186854  0.029265798 
  477000    311.53693    3555.7704     3048.625    33.865313 -0.016477744 -0.010877774 -0.0064076995 
  478000    335.69908     1292.648     3048.625    34.329734 0.0082035208 -0.050406811 -0.059054189 
  479000     330.0242    9000.3104     3048.625    33.780997 -0.013497652 -0.0064382105  0.020329511 
  480000    334.15696    5081.9025     3048.625    32.796491  0.010042118 6.5569848e-05  0.015740261 
  481000    298.41262    9607.9793     3048.625    32.245361 -0.034121095 0.0022890924 0.0099920314 
  482000    303.51753      6436.68     3048.625    29.902242  -0.04758794 -0.0048776168 -0.024199096 
  483000    325.27953    3961.7985     3048.625     25.82732 -0.0027873376  0.010344303 -0.026532659 
  484000    318.17969    10938.134     3048.625    22.769539  -0.03622086  0.013097862 -0.0060664088 
  485000    318.92132     11633.47     3048.625    22.279124 -0.015188593  0.016905669 -0.017153478 
  486000    318.03623   -1447.5011     3048.625    24.248313  0.028714918 -0.00098719757 -0.012702003 
  487000    310.80382    11849.484     3048.625    25.894826 -0.0069683025 -0.0034607722  0.037931818 
  488000    314.74712    8598.5309     3048.625    26.661907  0.024027733 -0.003654099  0.043046597 
  489000    321.86351     1865.379     3048.625    28.164566  0.048305728 -0.0011258509  0.015461212 
  490000    322.66251    9703.8088     3048.625    27.476879   0.00985841 -0.0089558046 0.0098630393 
  491000    302.38387     11214.27     3048.625    26.468198  0.028971543  0.017841651  0.014729447 
  492000    302.18563    3465.1959     3048.625    25.186157 -0.0011590808  0.036859743  0.031344036 
  493000    308.09932    11338.381     3048.625    23.971469  0.016842421   0.02005041 -0.019889682 
  494000     309.9705    11907.644     3048.625    23.842588  0.047400212  0.022774473 -0.020597966 
  495000     319.5447    12736.351     3048.625    25.479775 -0.025913352 -0.022026886 -0.021325858 
  496000    340.79888    -592.2277     3048.625    28.978904  0.016390368  0.024147054 -0.010014275 
  497000    325.90411     2478.936     3048.625    32.648089 -0.042812219 -0.003158402  0.044382708 
  498000    328.72912    12837.947     3048.625     34.04349 0.0030915826 -0.023391932  0.065132977 
  499000     317.3861    563.69057     3048.625    32.886672 -0.025459697  -0.04998511 -0.0088710519 
  500000    305.90141   -5393.9626     3048.625     30.34596  0.044078034  0.026173362 -0.012561321 
  501000    327.36678    7293.9509     3048.625    29.162612   0.01201297 -0.0064395431 -0.011251588 
  502000    322.85233    13860.831     3048.625    29.654103  -0.02016403 -0.0087089328 -0.034957168 
  503000    336.93169    1756.0209     3048.625    31.220539  0.020193648 -0.015018187 -0.0039418787 
  504000    335.94676    3496.6686     3048.625    31.134691 -0.0071578571 -0.029214001 -0.0057318564 
  505000     321.7363    3963.3104     3048.625    28.652404 -0.0094049912 -0.018040582 0.0080504385 
  506000    351.69134    6855.1208     3048.625    25.215263 -0.0094378646  0.023691823  -0.05359941 
  507000    309.92686    9530.3509     3048.625    25.104525 -0.0078476977 -0.027156397  0.054397331 
  508000    322.77335    6165.2093     3048.625    26.468007 -0.021346316 -0.014963822   0.02624111 
  509000    320.13077    1004.7168     3048.625     25.85446 -0.033499818 -0.026433986  0.017527138 
  510000    321.68335    11683.024     3048.625    24.683745  0.029145455 0.0011369849 -0.021129631 
  511000    322.68008    5409.5818     3048.625    24.082718  0.029304711 -0.043272718 0.0031816001 
  512000    331.96901    4692.3766     3048.625    24.312061 -0.0028378403 -0.021314771  0.019858038 
  513000    326.20419    524.42713     3048.625    24.792115  0.026241077 -0.011824961 0.0052642751 
  514000    317.72381    9524.3091     3048.625    23.718361 -0.0057092442 0.0091657296 -0.051919963 
  515000    325.74491    14488.186     3048.625    24.106808  0.008702172  0.023673452 -0.017053195 
  516000    328.56081   -2597.5284     3048.625    26.490048  0.039477273   0.02033376 -0.0044831179 
  517000    310.13224   -2493.9435     3048.625    29.104979 0.0081253783  0.036162784 -0.016710105 
  518000    345.61035    10776.627     3048.625    32.035052 -0.038084326  0.014708182  0.055235751 
  519000    324.35017    14301.631     3048.625    32.270635 -0.00055775878 -0.020757818 -0.0074248726 
  520000    320.98059   -562.65376     3048.625    30.726583 -0.0024295863 -0.00045644474 -0.038871699 
  521000    300.61294    1841.2383     3048.625    29.616353  0.025170754  -0.01513458  0.023983955 
  522000    324.49653    5999.4672     3048.625    27.178391  0.022295357 0.0076371928 -0.010548574 
  523000    309.18847    9162.4688     3048.625    23.831628  0.023357346  0.029059652 0.0077866295 
  524000    333.53993    934.09993     3048.625    22.972659 0.0098350291  0.014068728  0.024306025 
  525000    347.91275    2099.1485     3048.625    22.836511 -0.011404724 0.0092719124  0.013968726 
  526000    329.93153     10291.68     3048.625    26.266489 -0.0036113047  0.023444369 -0.0049738236 
  527000    339.80645    10323.597     3048.625    30.896467  0.031123826  0.043069383  0.042384439 
  528000    316.74742    3159.3791     3048.625      34.4498  0.027681553 -0.035004479  0.009236206 
  529000    344.72499   -1052.6426     3048.625    35.240456   0.01677049  0.062015694 0.0066748894 
  530000    330.04398    9907.7879     3048.625    32.690437 0.0070087068 -0.0048706395 -0.016330823 
  531000    323.57514    4183.7352     3048.625    28.547385 -0.0087504419 -0.00043323634 -0.048858407 
  532000    304.33879   -5562.8101     3048.625    25.061873 -0.031866413  0.010314217 -0.012404472 
  533000    310.84306    13533.949     3048.625    22.928337  0.062497294   0.01907078 -0.021540423 
  534000    322.04983    9796.4664     3048.625    21.157207  0.033650798 0.00079776646  0.065164995 
  535000    313.10185    5520.8689     3048.625    21.507906 0.0023813348  -0.01703771  0.055518182 
  536000    329.18178    6651.3879     3048.625    24.238717 -0.024238068 -0.024832788 -0.020312566 
  537000    314.41958    11264.977     3048.625    29.129558 -0.035851082 -0.0032728019 -0.025561502 
  538000    325.12158     7659.639     3048.625    32.940901 -0.012409435 -0.019521994 -0.019718857 
  539000    321.60504    1325.9728     3048.625    32.596045  0.024865321 -0.0060352768 0.00090108956 
  540000    289.93055    4058.7858     3048.625    29.158173   0.03348827 -0.010717655  0.031264598 
  541000    316.15722    19774.601     3048.625    27.029147  0.055252869  0.025773701  0.029325699 
  542000    311.86791    5257.9614     3048.625    27.768787 -0.010275711   0.02552105  0.022535271 
  543000     306.9144    3333.8832     3048.625    29.269096 -0.017327101  0.029189704  0.026974152 
  544000     315.1252    10858.792     3048.625    29.020499 0.0012976712 0.0042250202  -0.02715244 
  545000    315.11345    11546.444     3048.625    28.611014 -0.045608531  0.021228656   0.02083542 
  546000    317.56855    1448.7474     3048.625    30.473116 -0.029731018 0.0038306877 0.0069544044 
  547000    317.33934    -3724.814     3048.625    32.305065 -0.0010587861  0.011316862 -0.025340863 
  548000    328.39972    13857.606     3048.625    32.863041 0.0052227062  0.016644539 -0.034882701 
  549000    318.68038    8303.2503     3048.625    31.729724 -0.030578702 -0.0073036258 0.0090319412 
  550000    320.85397    1459.3835     3048.625    27.362498 -0.052948199  0.032795348 -0.011384381 
  551000    321.94496    2218.9244     3048.625    25.239812 -0.069978976 -0.018682553  -0.04320567 
  552000    333.84093    8408.1207     3048.625    26.822911 0.0034853758 -0.022178171  -0.04213506 
  553000    332.04397    6142.5941     3048.625    30.748959 -0.0042014495  0.024127671 -0.032665173 
  554000    320.40907    5444.4981     3048.625    35.051482 0.0089865623 -0.030455584  0.038203025 
  555000     341.0047    2924.9427     3048.625    35.034465  0.031505801 -0.012160962  0.028939966 
  556000    315.95596    6215.7551     3048.625    30.980477 -0.027068806  0.018921665 -0.034397902 
  557000     328.9999    11114.541     3048.625    26.170299 -0.019868444 -0.0094376675 -0.024470745 
  558000    325.17268    6685.0183     3048.625    24.661564 0.0026425187  0.024217039  0.034528913 
  559000    329.29668    7711.1427     3048.625    27.733909 -0.0049784653  0.015167761  0.023794544 
  560000    309.53804    14537.206     3048.625    33.467008  0.053121754 -0.0052153676   0.05137515 
  561000    315.28058    2148.4634     3048.625    34.867265 -0.042297511 -0.010130454  0.026547928 
  562000    303.45309    1957.4256     3048.625     31.03209  -0.01521575 0.0013597178 0.0030273588 
  563000    323.67453    8703.7644     3048.625    26.252075  0.015146541  0.022049139 -0.049946175 
  564000    321.34708    10998.847     3048.625    22.883346  0.012885859  0.018871122 0.0012862407 
  565000    305.94521    5931.1656     3048.625    24.640331 0.0042880718 -0.0066672123  0.032361441 
  566000    301.47316     9962.653     3048.625    29.829303  0.020663563  0.038099018  0.024706398 
  567000     326.5633    6795.9855     3048.625    34.724841  0.027163943 -0.037922594  0.017625541 
  568000    315.06885    5199.7807     3048.625    35.420134 0.0099614738 -0.032299006  0.024576216 
  569000    310.69536     5355.729     3048.625     31.10295  0.024279724  -0.01014941  0.016935124 
  570000    327.75344    1606.2326     3048.625    24.024866 -0.0016009978 -0.056957538 0.0068077168 
  571000    332.49139    4866.5124     3048.625     17.51877  0.010730627 -0.0079958623 -0.015444175 
  572000    330.59684    12041.475     3048.625    15.107975  0.034909704  -0.03729187 0.0053664762 
  573000    340.35699    6912.6514     3048.625    17.488454 -0.011766816  0.047465165 -0.025486822 
  574000    317.76863    8576.4972     3048.625    25.900654 -0.026467005 -0.016713684 -0.0047121262 
  575000    302.12372    7289.3203     3048.625    34.102004 -0.0027285527 0.0067792433  0.061691476 
  576000    304.08093     6104.974     3048.625    35.963616 0.0075384034 -0.0075472976  0.018181351 
  577000    339.73961   -164.98806     3048.625    32.032577 -0.001991989 -0.0038310362  0.040708071 
  578000    333.99367    6029.6856     3048.625    23.546433  0.018213793 -0.070227945 -0.033588623 
  579000    340.42102    4435.2834     3048.625    16.655003  -0.01557185 -0.015204569 -0.036045649 
  580000    309.69372     7466.629     3048.625    14.532922 -0.027121662 -0.0035385524  0.032286806 
  581000    324.70746     10558.52     3048.625    17.198072  0.016795024  0.018564052  0.017404022 
  582000    297.36544    5317.8434     3048.625    21.095288 -0.0010509419  0.045587337  0.010856619 
  583000    311.15877    9045.6247     3048.625    21.569556 0.0053089122 -0.020395247 -0.0082325321 
  584000     328.8879    3147.1095     3048.625     20.46804 -0.030704968 0.0050369562  0.032648283 
  585000    320.83499    6398.7299     3048.625     19.50583 -0.0085237012 -0.034122731 -0.0043968869 
  586000    314.42814    9883.2895     3048.625     21.86615 -0.020543767 -0.0083564694  0.026922089 
  587000    317.22595    3260.9774     3048.625    26.626805   -0.0398619 0.0074885586 -0.018330289 
  588000    316.62781    5500.9996     3048.625    27.080021   0.03760094  0.004763865  0.021517653 
  589000    315.01882    7285.6824     3048.625    22.139775  0.065001551 -0.025313668 -0.031125031 
  590000    316.44936     8201.705     3048.625    17.194555  0.034396975 -0.011874538 -0.023198685 
  591000    323.01806    12367.514     3048.625    15.334436  0.028930122 -0.015957324   0.03765511 
  592000    327.05476    2244.9379     3048.625    18.379703  0.025547082 -0.032291118 -0.0023727925 
  593000    319.73256    6487.6682     3048.625    22.791853  0.031341418 -0.0039479724 0.0037199713 
  594000    324.35709    2126.2625     3048.625    28.808835  0.013425679 -0.0074822825  0.023532048 
  595000    333.00746    4721.5484     3048.625    31.245846  0.022582163  0.028314227 -0.025892154 
  596000    314.56532    4612.7402     3048.625    30.794502 -0.011229314  0.011435248  0.019739498 
  597000    322.25996    11078.276     3048.625    29.388335 -0.062251728  0.072931365  0.015816448 
  598000    318.78099    2964.0239     3048.625    28.633856 -0.028338074 -0.0053983908  0.014790728 
  599000    312.22869    12423.325     3048.625    28.142047 -0.031256015  0.079660981 0.0078118593 
  600000    325.52582    7821.2927     3048.625    27.892101  0.034096292  0.039683609 -0.023217957 
  601000    324.21971    2636.4422     3048.625    27.694595  0.017918648  0.033534344  0.003882117 
  602000    308.71529    1677.3525     3048.625    26.859293 -0.0016881355 0.0092938615 -0.040025777 
  603000    313.92968    7203.2399     3048.625     27.73141  0.027717524 -0.0078831269 -0.022006034 
  604000    317.42231    10151.357     3048.625    28.149416  0.034909006  0.013500137  0.023967099 
  605000    329.24757    1883.0241     3048.625     28.59446  0.025898625 -0.034416729 -0.0012694229 
  606000    326.44146    14110.136     3048.625    29.371158 0.0067469766 -0.014590062 -0.016135751 
  607000    331.26005    9818.7431     3048.625     30.19124  0.020945588 -0.0048083849 -0.043950483 
  608000    320.83662   -2128.6537     3048.625    30.863711 0.0066193093 -0.0018532655  0.035493155 
  609000     307.5022    9800.9048     3048.625    31.684567 -0.039750606 -0.014349342  0.021603385 
  610000    300.23245    9940.4502     3048.625    32.430987 -0.047525322  0.013518564 -0.021377379 
  611000    313.19081    521.89818     3048.625    30.423549  0.044924836 -0.019960269 0.00077633203 
  612000    324.48062    3985.7314     3048.625    26.419304 -0.0059624653 0.0064901002 -0.0019399045 
  613000    324.93017    16576.536     3048.625    25.144903 -0.0060604533 -0.00063562776 0.0079937353 
  614000     315.8061    2459.5026     3048.625    25.475101  0.056774314 -0.039371796  0.023878744 
  615000     321.3657    348.74681     3048.625    27.900949 0.0041190501 -0.0019463353  0.016757831 
  616000    316.13354    3836.7967     3048.625    30.742201  0.028539639 0.0092845824  0.016208947 
  617000    306.92434    11828.514     3048.625    30.665985    0.0241923  0.025578863  0.010604602 
  618000    299.02272    7366.9703     3048.625    29.707557 -0.030371134 -0.0061073775 -0.0099663716 
  619000    315.97191   -438.55149     3048.625     29.08992 -0.016422014  0.023651053  0.030721281 
  620000      347.072    7190.9575     3048.625    28.555679 -0.0023193102 0.0046243981 -0.019243439 
  621000     334.6828    9551.7262     3048.625    27.494491 -0.025651968 -0.011843611 -0.0070906295 
  622000    317.03518    6422.8514     3048.625    24.623028  -0.07224814  0.037421688  0.011618951 
  623000    318.57609    9379.4644     3048.625    22.533185  0.015122119 -0.0073281265  0.025179019 
  624000    316.40644    11145.696     3048.625    22.928427 -0.0097576946 0.0042225068 -0.054819235 
  625000    328.38671    5243.9217     3048.625    26.592511  0.014099453  0.033505639 -0.020889549 
  626000    304.04133    81.044354     3048.625    30.244354  0.015354739   0.05084479 -0.0081471184 
  627000    315.44749    -1988.657     3048.625    31.103035 -0.031004947 -0.018669277 0.0031344118 
  628000    303.92093    14520.603     3048.625    28.141803 -0.017447613  0.068509518 -0.0036838602 
  629000    324.59657    2538.0161     3048.625    24.442361 -0.006425362  0.024879305  0.018349948 
  630000    337.29202    4832.7328     3048.625    22.297415  0.063105372  0.036064212  0.015638625 
  631000    312.34119     9711.995     3048.625    22.311401 0.0016720901 -0.0060156486  0.015508223 
  632000    328.75128    9283.6162     3048.625    21.430632  0.044194956 0.00067368181  -0.03517882 
  633000    302.48344     1373.255     3048.625    20.692451 -0.021797749  0.036436359 -0.0024731921 
  634000     329.2938    4662.6005     3048.625     21.44298 0.0099209979  0.018802938 -0.024190863 
  635000    323.79564    6229.0618     3048.625    25.104308 -0.0015602227 -0.028994518  0.030684948 
  636000    321.35477    3912.8904     3048.625    29.266855 -0.014835252  0.022340288 -0.011883092 
  637000    318.99412    3624.7409     3048.625      30.4056 -0.0087840735 -0.013884912 -0.031262539 
  638000    303.68434    9054.5892     3048.625    25.912991 -0.0036542001 0.0094926353 -0.017432578 
  639000    304.09174    12443.901     3048.625    20.411114 -0.0095952866  0.031628595 0.0054084534 
  640000    304.50588    6580.7042     3048.625    18.468925 -0.0030047855 0.0031168621 -0.025984497 
  641000    310.26502    9583.1118     3048.625    20.690603 -0.0034797498 -0.024082523 -0.041070869 
  642000    333.92924    133.52293     3048.625    24.073688 -0.040119126 -0.014792726 -0.025248774 
  643000    320.30254    3951.7272     3048.625    25.029741 -0.022591612 -0.014352026 -0.013661332 
  644000    312.23121    6276.1608     3048.625    27.288312 -0.030350268 -0.037595429  -0.02536562 
  645000    304.62579   -41.838233     3048.625    29.591365 -0.043925236 -0.012549903  0.011143239 
  646000    299.80038    6757.6805     3048.625    29.761883 -0.00010397436 0.00024271213 -0.023395662 
  647000    327.59565    10376.324     3048.625    26.452068 -0.0071046024 -0.021661631  0.041566078 
  648000    332.17163    3365.5513     3048.625    20.830958 -0.003258567 -0.0077720644 0.0081824299 
  649000    321.84545   -7348.4217     3048.625     19.24031 -0.0081567499 -0.010446047  0.039253223 
  650000    337.49427    4514.2296     3048.625    23.623477  0.044366505 -0.015947357 -0.00025110337 
  651000    335.22996    10400.782     3048.625      30.9103 -0.0074975687  0.015496594 0.0014090621 
  652000    307.42883    3179.4509     3048.625    34.414122 -0.059969418 0.0095960681 0.0016044201 
  653000    320.92172    7740.8198     3048.625    32.820141 -0.030257108 0.0072366551  0.018329793 
  654000    341.22971    946.61278     3048.625    30.485672 -0.023329237  0.024330446   0.02460807 
  655000     331.0274   -6438.1195     3048.625    27.726337 -0.0044476177  -0.02801268 -0.015355532 
  656000    303.33303    8670.1725     3048.625     25.06371 -0.024003204  -0.02073851 -0.022345356 
  657000    313.86456    9606.9227     3048.625    21.645038 0.0066326885 -0.016634058 -0.016550562 
  658000    315.20998   -1240.4523     3048.625    20.671864  0.024035283  -0.03874311    0.0334935 
  659000      317.589    2570.9051     3048.625    24.310181  0.054134124 -0.0024627068 0.0019196133 
  660000    321.89849    7254.1299     3048.625    27.399745  0.013290542  0.034073162 -0.00090364218 
  661000    322.99742    4539.6202     3048.625    29.895835  0.019948453 -0.014865642 -0.023553907 
  662000    327.01183    1423.8074     3048.625    31.100676 -0.0082463866 -0.0048649165   0.01213668 
  663000    316.95088    3067.0732     3048.625    28.825121  0.050730739 -0.0050761765  0.052646247 
  664000    304.74536    9512.9569     3048.625    24.986454 0.00087015277 -0.007362883 -0.018046062 
  665000    305.57252    7389.0367     3048.625    22.592375 -0.0031537273  0.022987087 0.0091321281 
  666000    330.07521   -1464.2753     3048.625    25.300419 -0.022342232  0.019863303  0.029463364 
  667000    320.54021    4930.3897     3048.625     30.10864   0.01345816 -0.0055301375 0.0039715532 
  668000    302.64154    8192.5554     3048.625    31.397542 -0.0086973702 -0.022754148   0.02992618 
  669000    314.11284    4477.4277     3048.625    27.787152  0.010252485 -0.0041394018  -0.04009322 
  670000    305.98921    7532.4722     3048.625    23.539943 0.0033507329 -0.012712344 -0.038132075 
  671000    330.63994    7042.4251     3048.625    23.937218  0.008435178 -0.0033020099 -0.018992379 
  672000    318.50334    4394.3105     3048.625    28.044262  0.010032436 -0.012951766 -0.044069615 
  673000    322.43844   -323.11866     3048.625    31.622064  0.016629003  0.014515334 0.0072414215 
  674000    318.47623    6699.5508     3048.625    32.724975 0.0060012404 -0.0070483286 -0.018766322 
  675000    321.43225    7906.1147     3048.625    30.651274  0.043439907 -0.017820583 0.0077819611 
  676000    320.81717     4291.437     3048.625    28.958461  0.020026408  0.017468219 0.0088282784 
  677000    329.51523   -1359.1297     3048.625    29.114088  0.038041259  0.002733887 -0.050645433 
  678000     338.8389    7252.7747     3048.625     29.14103 0.0028041023  0.017257592  0.015166584 
  679000    336.52292    7917.3199     3048.625    27.040012 0.0021837204  0.060864378 0.0014524551 
  680000    317.92504    4460.2872     3048.625     22.68917 -0.0081304619  0.021300932  0.014954759 
  681000    317.43825    1952.1765     3048.625    22.629194 0.0055610497 5.3012157e-05 -0.028623534 
  682000    327.57302    6763.3808     3048.625    28.597596 -0.031904666  0.044258488  0.002641856 
  683000    323.52469     1065.194     3048.625    31.685669 -0.0069819998  0.021045928 -0.011496207 
  684000    324.41787    3972.9969     3048.625    30.937402 -0.038317581  0.055549094 -0.028357054 
  685000    311.51359    6905.9183     3048.625    30.109256 -0.023736328 -0.0097426232 -0.0009492181 
  686000    320.69992     1522.499     3048.625    32.124987  0.025619645  0.026055063 -0.011531976 
  687000    327.42031    835.05062     3048.625    34.063687 -0.0046469003  0.014608618 -0.0050617536 
  688000    322.70902    9242.9013     3048.625    35.178653 -0.0021939707  0.011159074 -0.0098844768 
  689000    311.31881    4559.9159     3048.625    34.808311   0.01648322   0.01568966 -0.020505316 
  690000    324.49587    1286.4984     3048.625    33.303449   0.01122551 0.0044986318  0.031139021 
  691000    305.81316    8023.5624     3048.625    29.916997  -0.01544724  -0.01770869  0.021690293 
  692000     341.0054    9599.5894     3048.625    27.047579 -0.033265768 0.0048795638 -0.043202221 
  693000    316.44337    6616.1709     3048.625    26.307418  0.023456036 -0.023721372  0.021546371 
  694000    323.05347     2304.286     3048.625    29.645259 -0.024491492 -0.029938542  0.024118744 
  695000    316.67882    394.31454     3048.625     33.04179  -0.02316153   -0.0171305 0.0024904864 
  696000    307.45259    5965.1144     3048.625    35.016397 -0.022368202 -0.018978977  0.011235402 
  697000    295.09446    11700.108     3048.625    34.954271  0.033169362 0.0073986585  0.020926188 
  698000    343.03959    6772.5424     3048.625    34.463086  0.019655638  0.064607762 -0.001948906 
  699000    327.92396   -3214.2204     3048.625    33.767704 -0.0032405228 -0.0045797381  0.051599765 
  700000     305.8362    10646.937     3048.625    33.333249  0.024513955 0.0038665905 -0.0029279607 
  701000    321.04661    6476.9614     3048.625    34.355932 -0.038057263 -0.038589636  0.037804988 
  702000    299.89282    6033.0699     3048.625     35.70267   -0.0374566 -0.036461986 -0.0011263059 
  703000    321.19985    4295.0269     3048.625    35.742757  0.014058709  0.023669279 -0.023401963 
  704000    323.77733     4269.722     3048.625    35.212494 -0.071739776 -0.010297687 -0.012167044 
  705000    342.02666   -1924.4003     3048.625    35.136024 -0.011709557 -0.010937577 0.0044475876 
  706000    311.76049    6664.9931     3048.625    35.387821 -0.0079752775  0.018854129 0.0076217706 
  707000     306.0306    23649.862     3048.625    34.543889  0.024717876  0.038160169  0.018242908 
  708000    311.90455   -5908.6546     3048.625    33.164127  0.015502593 0.0066812376  -0.03522815 
  709000    316.70814    -3618.406     3048.625    31.126893 -0.0059559154  0.015459669    0.0236202 
  710000    313.74122    13060.577     3048.625    28.212313 -0.013902615  0.021934943  0.016533055 
  711000    328.08248    6770.2102     3048.625    27.574865 -0.00046393243  0.033962136 -0.013830243 
  712000    320.34054   -1541.4735     3048.625    28.527073 -0.020325681 -0.038202918 -0.0099837461 
  713000    322.32793    6915.8336     3048.625    29.974363  0.057569205  0.027410416 -0.020154312 
  714000    337.83846     10974.21     3048.625    29.693464 0.0009145899 -0.043399524 -0.0081394148 
  715000    313.57822    308.05228     3048.625    26.535673 -0.036312221  0.036358867  0.037251303 
  716000    332.85363    3536.2798     3048.625    22.909292 -0.0043615298 -0.027782518 -0.021486561 
  717000    308.29988    24155.034     3048.625    21.447474  0.007330238 -0.021025794 -0.014129614 
  718000    307.62476    3389.3065     3048.625    21.321328  0.014118007 -0.032963333 -0.005159151 
  719000    299.35089    965.78493     3048.625    22.045314 6.8816856e-05 -0.040532189 -0.008821055 
  720000    311.89653    7907.4909     3048.625     23.66708 0.0074296692 -0.022176217  0.002209817 
  721000    305.33036     13209.14     3048.625    26.334744  -0.03637657 -0.013608545  0.012278416 
  722000    294.36846    6243.6119     3048.625     29.49823  0.026505306 -0.0026768122 0.0021760144 
  723000    284.35633   -740.34249     3048.625    32.235733 -0.040542024 -0.0034903609 -2.3752835e-05 
  724000    290.00889    6314.3296     3048.625    32.520632 -0.018743303  0.016102364  0.004301102 
  725000    308.36093    4612.6543     3048.625    30.394964  0.014932837 -0.013239931  0.015474637 
  726000    300.52971    4991.3037     3048.625    29.091362  0.044235897 -0.040729289 0.0091967572 
  727000    326.42229    8655.8183     3048.625    30.574784  0.038750644 -0.023270276  0.014979709 
  728000    336.11733     68.49174     3048.625    32.114059  0.017096953 -0.021443589 -0.022726076 
  729000    316.76511     6277.852     3048.625    34.036678 -0.033674726 0.0014891506 -0.025675259 
  730000    295.97899    7647.1251     3048.625    35.015948 -0.010036132  0.015487514 -0.018115866 
  731000    309.86852    9695.9116     3048.625    34.543997 -0.013821295 -0.026058485  0.011907255 
  732000    318.49745     2098.327     3048.625    33.331547 0.0054386741  0.011232892  0.020424347 
  733000    330.93159   -2225.7812     3048.625    32.371661  0.012463847 -0.024164537 -0.022712403 
  734000    316.55646    7793.3458     3048.625    31.384254  -0.03015967  0.025448631  0.048637187 
  735000    311.76887     7081.112     3048.625    29.716565  0.019797216 -0.0034348019 0.0022253643 
  736000    290.99383    4159.6558     3048.625    28.787161 -0.044820529 -0.011614212  0.009499079 
  737000    314.48968    10599.674     3048.625    28.788345 -0.031140831  -0.05739473  0.016557345 
  738000    306.21095    3109.1754     3048.625    28.606276 -0.029834157 0.0044821902 -0.017625627 
  739000    311.70407    4748.7208     3048.625    28.694296 -0.026364498  0.021794692 -0.027315997 
  740000    314.78483    7477.8228     3048.625    28.013613  0.011582435 -0.0048029649 -0.042461687 
  741000    319.87692    3016.5568     3048.625    27.076419 -0.0056934915 -0.045808124 -0.016645719 
  742000    301.47491    6467.0149     3048.625    26.808542  0.025257336  0.010550563 0.0047819627 
  743000    323.20926     2113.938     3048.625    24.546007  0.026061252 0.0018905886  -0.03044607 
  744000    307.11535    2817.5424     3048.625    23.399542 -0.012415982  0.012734526  0.057227958 
  745000    323.89802     12837.01     3048.625    23.071686    0.0161671 -0.013195511 -0.022585086 
  746000    319.16931    8083.3371     3048.625     22.20532 0.0030973047 -0.015443642 -0.0054374489 
  747000    312.64428   -2939.6387     3048.625    20.922329  0.014976354  0.027394111  0.017480593 
  748000    315.00748    7985.7255     3048.625    24.116386   0.03891728 -0.013014413  0.058953521 
  749000    312.91008    9130.8876     3048.625    29.601441  0.022102704 -0.026741514 0.0056257621 
  750000    318.96481    1328.8612     3048.625    33.241612  0.043938186 -0.041260189 -0.035444931 
  751000    317.43548    5026.8907     3048.625    33.179181  0.022068162  0.044924834  0.012469662 
  752000    327.34732    9372.5775     3048.625    29.281606 0.0048637608  0.021063493 -0.0034922032 
  753000    314.63861    6901.2368     3048.625     22.31546 0.0079999905 -0.00016217851   0.03304203 
  754000    318.41197    3554.9669     3048.625     15.43811 0.0061431443 0.0093030499 -0.0018694834 
  755000    309.11732    8343.1944     3048.625    13.510101  0.015262093 -0.014952155  0.040241711 
  756000    321.46817    3246.0505     3048.625    15.059481  0.048702472   -0.0058105 -0.020647477 
  757000    320.96075    3586.2656     3048.625    18.090303 -0.017263711 0.00028591339 -0.014968044 
  758000    306.51719    5821.2164     3048.625    23.323487 -0.008500745  0.013044317  0.032106078 
  759000    311.76421    16793.315     3048.625    30.280218 -0.0043099373 -0.0068648132 -0.033936338 
  760000     301.9441    1237.1597     3048.625    34.000765   -0.0357573 -0.021527438  0.021575094 
  761000    338.02839   -4964.9799     3048.625    34.817018 -0.010135126 0.0013877735 0.0010982721 
  762000    313.35748    7277.7345     3048.625    33.618868 -0.027170055 -0.010484566 -0.014987049 
  763000    331.52957    6535.6145     3048.625    30.383577  0.012876461 -0.0037305144 -0.075619206 
  764000    311.22997    3247.0958     3048.625    27.222915 -0.052115101 -0.012436246  0.024148788 
  765000    314.85031    7646.7032     3048.625    24.497407 -0.048085477 0.0066310389 -0.040145466 
  766000    307.59955   -761.88094     3048.625    24.321617  0.018456634 -0.034628496 -0.0039431183 
  767000    313.35864    10143.186     3048.625    23.776957 -0.040953297  0.025237146 -0.034648742 
  768000    320.24197    12960.953     3048.625    23.873108 -0.0027932116 -0.027685411 -0.0042877395 
  769000    324.69861    52.662485     3048.625    25.580048 -0.010194822    0.0178883  0.020981574 
  770000    313.52277    4127.7311     3048.625    29.080331 -0.0034444895  0.047325366  0.023424771 
  771000    322.19335    6138.0217     3048.625    32.266956 -0.010747399 -0.013516027  0.027898582 
  772000     339.9594    8567.2383     3048.625    34.528608 -0.0024285122 -0.0027000697 -0.045246038 
  773000    315.66682   -3489.0383     3048.625    36.097752   0.02576597 -0.012203238  0.014394072 
  774000    310.98838    5327.7771     3048.625    35.438403 -0.046864759  0.031153337 -0.030967946 
  775000    307.28765    6392.4228     3048.625    34.014373 0.0078200739 -0.011146435  0.019329766 
[...]
  813000     316.4647    11303.695     3048.625    28.639123   0.01506915 -0.0088810289 -0.001558878 
  814000     320.0965    8089.1373     3048.625    26.879154  -0.02967602 0.0052043232 -0.0050723117 
  815000    329.08681    4671.0587     3048.625    26.016853  0.019287594 -0.012727165 -0.015497522 
  816000    306.28276    5891.4036     3048.625    25.493345 -0.015625232   0.01715686  0.036902549 
  817000    312.99657     6307.155     3048.625    27.019742 -0.014335668  0.014678486   0.02904028 
  818000    331.16615    6736.2093     3048.625    30.087697 -0.023698784 0.0010019597 0.0021416555 
  819000    315.25439    65.143992     3048.625    32.024674 0.0018153138 -0.016414869 -0.021331249 
  820000    331.82168    3931.9554     3048.625    32.460469  0.010094923 0.0077285892 -0.015777954 
  821000    313.08149    5179.2196     3048.625    30.046683  0.012533055 -0.011672017  0.034066929 
  822000     302.9343    8733.5398     3048.625    27.366566 -0.022353076 0.0058417101  0.021081018 
  823000    308.95081    1728.6488     3048.625    26.605906  0.020812859   0.02279696  0.019796038 
  824000    319.38402    1228.5081     3048.625    29.901899 -0.0072866567  0.026742032  0.015428682 
  825000    331.94467    7465.9686     3048.625     32.65751 -0.025550787 -0.0056710016  0.038469734 
  826000    312.23113    5990.1909     3048.625    30.131058  0.020521302 -0.031330561 -0.019817681 
  827000    321.11623    3750.6085     3048.625    25.009986 -0.045630831 -0.0073709339  0.017411868 
  828000    315.70165    5149.3777     3048.625    23.286196 -0.029864173   0.01252581 -0.0021335675 
  829000    316.48795    1626.7332     3048.625    25.228122 -0.011583731 -0.0031443821 0.00053290233 
  830000    299.29268    3901.6428     3048.625    27.922248 -0.0067337939 -0.021300656 0.0025344492 
  831000    310.55001    10863.811     3048.625    30.261252 -0.0053605887  0.023419185 -0.010823176 
  832000    323.18902     7608.084     3048.625    28.888975 -0.022457241 0.0079112391 -0.004411963 
  833000     327.7912    5912.4494     3048.625    24.845156 -0.069662586 0.0068167447 -0.037529337 
  834000     288.9322    5809.1291     3048.625    19.709953 -0.022647025  -0.01554065  0.012028224 
  835000    289.95168     4252.011     3048.625     18.22604 -0.0049528587  0.017631518 -0.018115687 
  836000    323.45243    6236.9069     3048.625    21.992787 0.0032140949 -0.015916785 -0.010518168 
  837000    308.39667    5615.9804     3048.625    28.021194  0.039367804 -0.0051047446  -0.01417898 
  838000    324.40968    1318.2929     3048.625    32.968028  0.012420301  -0.01068431  0.042341268 
  839000    311.03831    6112.4285     3048.625    35.393916  0.020936159 0.0063847147   0.01147367 
  840000    301.42822    5352.0299     3048.625    33.063412 -0.025922638 0.0074750869  0.015318461 
  841000    313.15817    10951.484     3048.625    28.910048 0.0052746052 -0.0090155609 -0.0027683706 
  842000    313.58447    1881.6059     3048.625    27.781169 -0.0051806999   0.01886094 -0.0030544249 
  843000    325.89598    2936.5905     3048.625    29.026172 6.5668835e-05 -0.00017717017 0.0040214167 
  844000    337.13665    6258.0467     3048.625    29.876606 -0.015913438  0.019044315  0.035920926 
  845000    327.40756   -1803.6067     3048.625    29.959583 -0.0082793731 -0.0048574359 -0.026161061 
  846000    332.19171    4827.8482     3048.625    30.102656 -0.042718283 0.0088165344  0.016241858 
  847000    320.32138     11486.81     3048.625    30.292724   0.01550245  0.026050296 -0.0080072936 
  848000    321.55074    5188.5671     3048.625    29.003445  0.014026045  0.015441074 -0.036990901 
  849000    333.39719   -2230.0637     3048.625    27.177469 -0.021589819 -0.029551406 -0.014458384 
  850000    305.43382    5687.4611     3048.625    27.424443 0.0033066715 -0.00055349425 0.0068089223 
  851000    292.96846    3253.6556     3048.625    30.111445  0.036587374 -0.032662627 -0.0070555682 
  852000    330.89044    4908.4556     3048.625    33.625661 0.0064534406 -0.0052432602 -0.0052295222 
  853000    315.96457    7622.4238     3048.625    34.548689  0.029776453 0.0084297908  0.031500305 
  854000    317.45701    4550.4479     3048.625    33.609819 0.0084444494 -0.0061910919  0.043647369 
  855000    314.46513   -4685.2792     3048.625    32.314449  0.019280539   0.01355171  0.026773991 
  856000    334.59855    3248.4496     3048.625    30.905981 -0.00044481844 0.00098530991   0.01246221 
  857000    313.01245    2170.0931     3048.625     29.25774 -0.0032866634  0.026431857  0.026287087 
  858000    327.84681     12778.83     3048.625    28.605626 -0.016860867  0.016055899  0.015544997 
  859000    307.58456    2394.0506     3048.625    28.628497 -0.010030949 -0.021149873 0.0062410745 
  860000    304.06723    4820.5959     3048.625    28.616265 -0.022132774  0.051911144 -0.050051781 
  861000    292.50464    7117.0605     3048.625    28.211845 -0.056761631 -0.0090494378 -0.010330805 
  862000    292.62301   -5453.8618     3048.625    27.750273 -0.032864605 0.0011115458 -0.013869942 
  863000    298.26819   -3192.4135     3048.625    26.525698 -0.0023169187 -0.0072161783  0.026253762 
  864000    311.90176    11076.077     3048.625    24.294139 -0.023631372  0.025508634 0.0057180912 
  865000    304.37634    13597.529     3048.625    21.052411 -0.010524011  0.017417835 -0.028272978 
  866000    309.16307    5333.3836     3048.625    16.885658 -0.0085236452 0.0026761001 -0.040129816 
  867000    300.65239    2213.9853     3048.625    16.471538 -0.00099345576 0.0024719534 -0.043344559 
  868000    315.90367   -1143.4807     3048.625     18.91283 -0.013535581  0.041718197  0.019020527 
  869000    321.90421    5939.8181     3048.625    23.332658 0.0052822116 -0.013684829 -0.032144344 
  870000    336.00896     11191.49     3048.625    27.593402  -0.02059399 -0.014328493   0.02655242 
  871000    301.08928    8806.0947     3048.625    29.172809  0.029111422 -0.0087148349  0.017395249 
  872000     311.4854    2228.8145     3048.625    29.420389 -0.00011998395 -0.012181506  0.016445412 
  873000    311.29291    1500.6307     3048.625    28.001454 5.059126e-05    0.0207001  0.020790157 
  874000    320.23207    9697.2175     3048.625       28.343 -0.0055550608  -0.01455072 0.00079063716 
  875000    338.48901     5947.835     3048.625    29.461588 -0.001727582 -0.032908751 -0.013403994 
  876000    318.82913    174.92579     3048.625    29.504913 -0.010044864  0.041375268 0.0083850949 
  877000    299.53057    8185.5988     3048.625    30.174101 -0.0051341112 0.0012137107 -0.0025885931 
  878000    309.05557    7490.8444     3048.625    29.432351  0.031262564  0.018680273  0.026258484 
  879000    314.79686    4151.8744     3048.625    29.715124 -0.029712564 -0.0093768711 -0.0082190402 
  880000    295.35421    35.482699     3048.625    30.478121 0.0034906762  0.041470959 0.0020491777 
  881000    327.57051   -2318.5044     3048.625     30.80598 -0.0068679424 -0.031926606 0.0041794812 
  882000    312.98694    14925.381     3048.625    29.720661  0.012345478  -0.02130357  0.020817153 
  883000    314.49726    6178.3899     3048.625    27.093953 -0.056598537 -0.026714944  0.020348744 
  884000    322.26937    2101.0506     3048.625    23.476088 0.0054397022 -0.044175224 -0.025132818 
  885000    327.13392    3122.6668     3048.625    19.993845 0.0037768125 -0.017863465 0.0014160425 
  886000     309.1009    10146.483     3048.625    18.545591  0.016941796 -0.026468272 -0.042151074 
  887000    312.39552    1659.3199     3048.625    19.586734 0.0043978994  0.011119183 -0.021659012 
  888000    332.26791   -771.30882     3048.625     22.97509 -0.036991717  0.018835335  0.023148912 
  889000    326.48753    7945.9976     3048.625    25.452507 -0.016575146 -0.011536309  0.040087338 
  890000       317.64    10010.204     3048.625    23.701898 -0.0079852312  0.036781526 0.0032807523 
  891000    290.45044    8469.6319     3048.625    19.553699   0.03281697   -0.0250165  0.026433546 
  892000    309.08962    7705.7916     3048.625    16.216635 0.0076706258 -0.047052149  0.012924751 
  893000    310.83632     2819.818     3048.625    15.633218 -0.023529648 -0.025280094  0.033216121 
  894000     330.8751    6020.0529     3048.625    17.989027 -0.037730627 -0.036745939 0.0012419009 
  895000    312.28417    10970.994     3048.625      18.9542 0.0044001093    0.0101026 -0.030107319 
  896000    293.59344   -170.22072     3048.625    19.691254 -0.0062761149  0.025858872 -0.028123617 
  897000    313.80434    3678.3717     3048.625    19.330561 -0.0060242052  0.036768422 -0.019626413 
  898000    316.19953    14434.695     3048.625     18.92634  0.011138323  0.025923388 -0.0086720572 
  899000    318.33269    7041.2489     3048.625    20.940996  -0.02547922 -0.059018125  0.027038196 
  900000    318.99744    -6785.533     3048.625    23.388305 -0.011056313 -0.045739913   0.03021827 
  901000    339.49507    847.84545     3048.625    25.918343  -0.04742038 -0.010131076 -0.028865551 
  902000    324.77711     16088.35     3048.625    28.926818 0.0032592702 0.0011661661  0.023520725 
  903000     337.0362    5366.1087     3048.625    31.097701 -0.0033770785 0.0018651848 -0.0088631703 
  904000    305.92365    128.91418     3048.625    30.910823  0.011755957  0.032819469 -0.039790183 
  905000    310.60171    4385.2997     3048.625    30.552338   0.01314704 -0.014409686   0.05094877 
  906000    310.39306    9722.2434     3048.625    30.161189 -0.00092507152   0.01017819 -0.0067235193 
  907000    331.76956    4304.4012     3048.625     28.80017 -0.038856689  0.010537059   0.06066523 
  908000    300.66587    2196.7939     3048.625    25.287825  0.003899437  0.050708095 -0.012214705 
  909000    307.80912    8758.0609     3048.625    21.967891 -0.012283268 -0.0043910533  0.012604977 
  910000    313.89218    9410.9903     3048.625     20.79892 -0.022029153  0.027912355  0.021038918 
  911000    343.85037    7896.3063     3048.625    23.258183  0.037483165 -0.0014135225 -0.021310325 
  912000    318.08944   -1706.6271     3048.625    27.160003 0.0036059739 0.0094529849 -0.033402868 
  913000    318.45253    3604.7212     3048.625    30.410953  0.049520125  0.012063381 -0.0096717153 
  914000    318.83033    3610.1392     3048.625    31.791621 -0.023310889  0.021569739 -0.0094124782 
  915000    306.99272    -584.4038     3048.625    30.676046  0.022801719 -0.027148814  0.015001603 
  916000    322.16075    6515.0499     3048.625     28.34657 -0.019146996 -0.021636687 -0.018914327 
  917000    308.26792    12212.871     3048.625    26.670002  0.012277981  0.015379972  0.021181844 
  918000    299.48899    7675.7495     3048.625    25.642328 0.0035066648 0.0077940395 -0.0095031487 
  919000     295.5038   -1559.0507     3048.625    25.290378  0.041535189 0.0003686234 -0.030809973 
  920000    305.12914    270.50486     3048.625    26.990923  0.010553674  0.027625787 -0.021546556 
  921000    332.47782    8804.1963     3048.625      30.5983 -0.011791473  0.031120198 -0.0028988618 
  922000    319.89279    10274.586     3048.625    32.981678 -0.0034911952  0.040584684  0.013044251 
  923000    328.00567    1975.4507     3048.625     33.09016 -0.0016710559  0.013930789 -0.021249069 
  924000     326.2059    2492.3551     3048.625     31.58226 0.0066560107 -0.0057797197   0.01953044 
  925000    300.37327    7831.0752     3048.625    29.159703  0.015449342 -0.021909009 -0.0064970988 
  926000    308.01286    6255.5037     3048.625    27.179359 0.0083100971 0.0042191447  0.014917937 
  927000    305.95222    5935.1434     3048.625    27.438478 -0.016668861 0.0068715185  0.012948249 
  928000    336.06163    2330.2487     3048.625    29.841448 -0.014419205 -0.028791554 0.0074057677 
  929000    316.74762    3148.5682     3048.625    32.109067 -0.020408153 -0.0035938665 -0.0069615486 
  930000    313.70007    9521.0092     3048.625    34.081411 0.0020683156 -0.0081783459  0.013441698 
  931000    334.30192    3219.4142     3048.625    33.799917 -0.034427211 -0.00056983899  0.044178949 
  932000    310.27804    4687.2032     3048.625    32.405801  0.027092769  0.023966922  0.021749273 
  933000    300.92246     6055.583     3048.625     29.53578 0.0038791512  0.021418341  0.021605104 
  934000    318.78767    5236.3916     3048.625    27.363708 -0.026020185  0.035763629 0.0047196194 
  935000     323.3127   -3968.4243     3048.625    26.969639  0.047564891  -0.02286315 0.0032304549 
  936000    309.18157    4688.2791     3048.625     29.59782 0.0014542648 -0.0021262412 -0.010109115 
  937000    319.33999    13503.706     3048.625    33.255463   0.04634274   0.02179399 -0.026925909 
  938000     299.8072    7312.3529     3048.625    36.060617 -0.026362406  0.067675778 0.0066016081 
  939000    303.44333    1210.5673     3048.625    34.693761 -0.052672493 -0.023177008  0.016450451 
  940000    294.52589   -1630.0644     3048.625    29.500216  -0.02437965 0.0048650274   0.02322559 
  941000     324.2205    12162.955     3048.625    24.123213 -0.041853592  0.011482492 -0.016445733 
  942000    315.36791    7891.7459     3048.625    22.420474 -0.014754319 -0.0039839713 0.0054387656 
  943000    310.44293    136.06605     3048.625    24.045435  0.036731295 -0.048973202 -0.016475801 
  944000    330.78859     4455.291     3048.625    27.615391   0.03104704  0.026349213 0.0076662524 
  945000    296.89044    4540.1174     3048.625    30.825886 -0.0026352658  0.040543191 -0.015809494 
  946000    316.31802    5500.7794     3048.625    32.808078 0.0035877286  0.014605801  0.021465281 
  947000    303.51692    38.897662     3048.625    33.560824 -0.026896947 -0.0051031402 -0.0093208216 
  948000    292.06247    3806.7763     3048.625    33.247082 -0.013128039 0.0028229423 -0.024679407 
  949000    302.95664    10739.648     3048.625    32.006203  0.008631954  0.011337125  0.022238796 
  950000    329.10917    6171.5718     3048.625    31.645194 0.0058740495  0.050451537  0.018682245 
  951000    298.51588   -8275.6031     3048.625    32.655206  0.010510897 -0.053515794 -0.031409056 
  952000    315.69375   -6602.2912     3048.625    34.722013  0.002458715 -0.020487285 -0.012052211 
  953000    297.43873    8239.2167     3048.625    33.985397  0.039830654 -0.041251695  0.012701609 
  954000    312.20367    7990.5952     3048.625    30.227676 -0.016658853 0.0089215084 -0.0086163394 
  955000    313.37387    3489.5042     3048.625    26.183533 0.0015582608 -0.0076830612 -0.0023875273 
  956000    301.14243    1496.1873     3048.625    23.847291  0.023239491  0.014629716  0.040092901 
  957000    296.92291    4499.0422     3048.625    22.642189  0.017037962  -0.01109976 -0.018088426 
  958000     324.2292    3812.7492     3048.625    24.281493   0.01606033  0.012839888 -0.0082148196 
  959000    308.86683    9186.6808     3048.625    27.750166  0.022653398  0.046117605 -0.0045696836 
  960000    321.00544   -3880.8223     3048.625    30.967994  0.003779151  0.015839934 -0.021051221 
  961000    318.24197   -4496.0903     3048.625    32.466702 -0.025002196 -0.0097864272 -0.0033887266 
  962000    309.54998    9068.0986     3048.625    32.989404  0.016138469  0.008243323 -0.022655377 
  963000    307.05955    11520.965     3048.625    31.849231  -0.03750212 0.0088284557 -0.008722261 
  964000    323.55734    2501.3558     3048.625    31.383659 -0.008018717  0.035266837 0.0028991087 
  965000    316.81264   -3982.6415     3048.625    30.627133 0.0045682579   0.03480874 -0.027767782 
  966000    353.55771    6563.5792     3048.625    30.219111  0.027760968  0.016555388 -0.0075951404 
  967000    301.41553    3237.3451     3048.625    29.347591  0.065907645 -0.043306681  0.021602151 
  968000    304.77994    5536.6291     3048.625     28.48226  0.015539407  0.014242404 -0.0042526694 
  969000    299.27089    1084.5724     3048.625    25.578525 -0.054835806 0.0045893863  0.017731945 
  970000    326.81752    6716.6994     3048.625    19.737989 0.0052739674 -0.020213996    0.0282458 
  971000    327.56499    3048.9549     3048.625    13.867152 0.0024860691 -0.0058789749  0.014089007 
  972000    325.91979    39.914369     3048.625    11.572734  -0.02649982 0.0019422478 0.0020744758 
  973000    309.47167    1371.6897     3048.625    14.854947 -0.0026847911  0.024178303  0.011168792 
  974000    323.89913    6823.5745     3048.625    20.353417 -0.033045112 -0.011895913 0.0032359269 
  975000    306.79404    9350.8374     3048.625    25.242303  0.036171147  0.017309702 -0.0090472706 
  976000    310.08669    883.04395     3048.625     28.02648  0.010483942 -0.016104912  0.049000628 
  977000    315.13484     2517.024     3048.625    28.239146  0.019909124  0.012879849 0.0004884152 
  978000    301.38866    4903.3714     3048.625    28.366654 -0.0046602642 -0.030648936 -0.022963076 
  979000    313.69187    2644.3993     3048.625    29.726606 -0.017045623  0.018736618 0.0060322562 
  980000    330.23021    1563.1164     3048.625    31.976768  0.038695034 -0.003359096  0.038199682 
  981000    321.11088    11689.339     3048.625    34.212003  0.009155892  0.038531744  0.024970739 
  982000    315.60829    7891.7842     3048.625    33.587333 -0.027404359 -0.030543463 -0.035101676 
  983000    320.50624   -906.72165     3048.625    29.842711 0.0027983023  0.012074397 0.0012373024 
  984000    295.12988   -1492.0184     3048.625    26.096603 -0.016015097  0.012279449 -0.0072277559 
  985000    299.05831    7035.8071     3048.625     24.22096  0.031647413 -0.020447656 -0.013083041 
  986000       312.11    1787.5845     3048.625    24.569409  0.015060157  0.022830493 0.0068130198 
  987000    308.94725    5417.9762     3048.625    24.456782 -0.038659339  0.013693727 -0.006594839 
  988000     316.5733    4820.9065     3048.625    25.517635 0.0048116918 -0.040835438 -0.0066558309 
  989000    302.53869    10509.257     3048.625    28.772959 -0.0096682991 -0.0069035254  0.017930991 
  990000    310.24045    3751.4249     3048.625    32.700671 0.0035944977  0.025829989 -0.014570759 
  991000    326.81976   -5213.0768     3048.625    34.208132 -0.018633932  0.033159216  0.018930343 
  992000    319.72166    3182.3051     3048.625     30.06243 -0.035947112 -0.0032877994 -0.007287529 
  993000    332.84111    14507.855     3048.625    22.809841  0.026257017  0.010434876 -0.020836786 
  994000    311.59402    12344.901     3048.625    19.434039  0.014485712  0.040696729 -0.0030740269 
  995000    321.44638   -3350.3022     3048.625    22.104734 -0.024093804 0.0018900775 -0.007544293 
  996000    318.70531   -774.47371     3048.625    26.873936  0.043358322 -0.010898241  0.019414911 
  997000    338.64472    5295.4562     3048.625    28.706581 -0.035236807  0.061491501 0.00054805398 
  998000    313.98438    10018.726     3048.625    27.184367 0.0081860715 -0.0059033294 -0.059056207 
  999000    310.04957    3575.6616     3048.625    26.639547 -0.019860948 -0.0054848304 -0.013869673 
 1000000    313.28671   -2321.7117     3048.625    28.213612 0.0062945504 -0.0042229764 -0.020469711 
Loop time of 10918.3 on 1 procs for 1000000 steps with 240 atoms

Pair  time (%) = 10773.8 (98.6768)
Bond  time (%) = 0.29182 (0.00267276)
Neigh time (%) = 47.0726 (0.431135)
Comm  time (%) = 30.0988 (0.275673)
Outpt time (%) = 0.212816 (0.00194917)
Other time (%) = 66.7897 (0.611722)

Nlocal:    240 ave 240 max 240 min
Histogram: 1 0 0 0 0 0 0 0 0 0
Nghost:    5835 ave 5835 max 5835 min
Histogram: 1 0 0 0 0 0 0 0 0 0
Neighs:    87996 ave 87996 max 87996 min
Histogram: 1 0 0 0 0 0 0 0 0 0
FullNghs:  175992 ave 175992 max 175992 min
Histogram: 1 0 0 0 0 0 0 0 0 0

Total # of neighbors = 175992
Ave neighs/atom = 733.3
Ave special neighs/atom = 0
Neighbor list builds = 6638
Dangerous builds = 0
#	run			10000
	unfix			1
	uncompute		myKE
	uncompute		myPE
	uncompute		myStress
	uncompute		flux
	uncompute		myDis
	unfix			JJ

	next seed
	next iseed
jump lmp.in.gk loop_seed
