
#--------------------------------------------------------------------------
#nve rescale
#--------------------------------------------------------------------------
	velocity 		all create ${T_run} ${seed} rot yes dist gaussian
	velocity 		all create 300 ${seed} rot yes dist gaussian
	velocity 		all create 300 77777 rot yes dist gaussian

	fix 			1 all nve
	fix 			2 all temp/rescale 1 ${T_run} ${T_run} 0.01 1.0
	fix 			2 all temp/rescale 1 300 ${T_run} 0.01 1.0
	fix 			2 all temp/rescale 1 300 300 0.01 1.0
	timestep		${dt}
	timestep		0.0010000000000000000208
	thermo_style  		custom step temp press etotal vol
	thermo			1000
	run             	100000
Memory usage per processor = 4.94889 Mbytes
Step Temp Press TotEng Volume 
       0          300    170606.47   -1574.3912     3048.625 
    1000          300    -15640.79   -1597.7213     3048.625 
    2000          300   -2118.8586   -1598.5729     3048.625 
    3000          300    9814.7199   -1597.7848     3048.625 
    4000          300    27604.712   -1598.0616     3048.625 
    5000          300    28052.582   -1597.7021     3048.625 
    6000          300    19592.579   -1597.7823     3048.625 
    7000          300    3931.0508   -1598.3743     3048.625 
    8000          300   -5175.2569   -1597.9155     3048.625 
    9000          300   -12576.698   -1598.1104     3048.625 
   10000          300   -4281.6848   -1598.0161     3048.625 
   11000          300    15346.936   -1596.7295     3048.625 
   12000          300      22542.4   -1598.5425     3048.625 
   13000          300    23827.454   -1597.6507     3048.625 
   14000          300    7352.2153   -1597.6605     3048.625 
   15000          300   -2739.5437   -1597.7399     3048.625 
   16000          300   -11797.782   -1597.4047     3048.625 
   17000          300    -3127.929   -1597.6982     3048.625 
   18000          300    6985.6542   -1598.6662     3048.625 
   19000          300    22874.913   -1598.0983     3048.625 
   20000          300    8731.6527   -1597.9878     3048.625 
   21000          300   -4093.6959   -1597.6611     3048.625 
   22000          300    3208.3695   -1597.1102     3048.625 
   23000          300   -5848.8261   -1597.6772     3048.625 
   24000          300    14948.833   -1598.5221     3048.625 
   25000          300    15941.489   -1597.9102     3048.625 
   26000          300    10084.439   -1598.2245     3048.625 
   27000          300   -23.447458   -1597.6896     3048.625 
   28000          300   -707.11943   -1597.8659     3048.625 
   29000          300    7374.2205    -1598.168     3048.625 
   30000          300    10474.989   -1598.0942     3048.625 
   31000          300   -916.31396   -1597.8694     3048.625 
   32000          300    5042.6911   -1598.2577     3048.625 
   33000          300    9498.9133   -1597.9147     3048.625 
   34000          300    7221.7168    -1596.832     3048.625 
   35000          300    245.76514   -1597.1654     3048.625 
   36000          300    7176.6395   -1597.5478     3048.625 
   37000          300    13201.495   -1597.4053     3048.625 
   38000          300     4431.755   -1598.1545     3048.625 
   39000          300    8013.3099   -1597.1231     3048.625 
   40000          300    12393.793   -1597.2614     3048.625 
   41000          300    6416.2335   -1597.6385     3048.625 
   42000          300     5981.321   -1598.2281     3048.625 
   43000          300    4953.3244   -1598.6341     3048.625 
   44000          300    448.25637   -1598.9408     3048.625 
   45000          300      10989.8   -1597.4648     3048.625 
   46000          300    11938.426   -1598.6307     3048.625 
   47000          300    3975.0379    -1598.536     3048.625 
   48000          300    3509.2164   -1599.0985     3048.625 
   49000          300    7526.6149   -1599.0383     3048.625 
   50000          300    4498.2608   -1599.7744     3048.625 
   51000          300    4717.0105   -1598.5745     3048.625 
   52000          300    7862.9659   -1598.4633     3048.625 
   53000          300    6998.2014   -1598.5148     3048.625 
   54000          300     12247.36    -1598.554     3048.625 
   55000          300    3050.1631   -1597.9694     3048.625 
   56000          300    10123.706   -1599.0012     3048.625 
   57000          300    8543.1339   -1598.5674     3048.625 
   58000          300     5699.995   -1599.2251     3048.625 
   59000          300    6191.2168   -1598.5626     3048.625 
   60000          300    12027.205   -1598.6618     3048.625 
   61000          300    3196.8418   -1599.3484     3048.625 
   62000          300    9518.8016   -1598.3423     3048.625 
   63000          300    14392.047   -1597.5712     3048.625 
   64000          300    13330.591   -1598.7676     3048.625 
   65000          300    9006.3162    -1599.692     3048.625 
   66000          300    12738.927   -1599.0056     3048.625 
   67000          300    1651.4428   -1598.8148     3048.625 
   68000          300    5736.0133   -1600.1694     3048.625 
   69000          300     12097.88   -1599.8036     3048.625 
   70000          300    5622.1918   -1598.7542     3048.625 
   71000          300    12765.033   -1598.8915     3048.625 
   72000          300     5839.509   -1599.1512     3048.625 
   73000          300    11251.159   -1599.4678     3048.625 
   74000          300    12987.684   -1600.3494     3048.625 
   75000          300    6802.1692   -1599.9143     3048.625 
   76000          300     12670.83   -1599.9005     3048.625 
   77000          300    2213.8853   -1600.1507     3048.625 
   78000          300    13053.755   -1599.7549     3048.625 
   79000          300    6728.7502   -1599.4321     3048.625 
   80000          300     14695.39   -1600.0702     3048.625 
   81000          300    16140.821   -1598.4035     3048.625 
   82000          300    12031.807   -1599.6895     3048.625 
   83000          300    7223.7908   -1599.7364     3048.625 
   84000          300    18451.448   -1599.3615     3048.625 
   85000          300    8872.1195   -1600.7833     3048.625 
   86000          300    9021.3549   -1598.2974     3048.625 
   87000          300     12259.29   -1600.6628     3048.625 
   88000          300    17212.995    -1599.377     3048.625 
   89000          300    11499.351   -1600.1857     3048.625 
   90000          300    14239.571   -1599.5718     3048.625 
   91000          300    2794.8885   -1601.3688     3048.625 
   92000          300    14810.674    -1600.998     3048.625 
   93000          300    9131.8076   -1601.0206     3048.625 
   94000          300    2348.3504   -1601.4828     3048.625 
   95000          300    7561.7267   -1601.3147     3048.625 
   96000          300    4366.3686   -1601.5683     3048.625 
   97000          300    13639.342   -1601.6584     3048.625 
   98000          300    9245.8123   -1601.3479     3048.625 
   99000          300    5009.8398   -1600.3668     3048.625 
  100000          300    17538.936   -1600.4081     3048.625 
Loop time of 1084.15 on 1 procs for 100000 steps with 240 atoms

Pair  time (%) = 1075.6 (99.2114)
Bond  time (%) = 0.02614 (0.00241111)
Neigh time (%) = 4.12115 (0.380128)
Comm  time (%) = 2.9477 (0.27189)
Outpt time (%) = 0.00303173 (0.000279642)
Other time (%) = 1.45184 (0.133916)

Nlocal:    240 ave 240 max 240 min
Histogram: 1 0 0 0 0 0 0 0 0 0
Nghost:    5841 ave 5841 max 5841 min
Histogram: 1 0 0 0 0 0 0 0 0 0
Neighs:    87797 ave 87797 max 87797 min
Histogram: 1 0 0 0 0 0 0 0 0 0
FullNghs:  175594 ave 175594 max 175594 min
Histogram: 1 0 0 0 0 0 0 0 0 0

Total # of neighbors = 175594
Ave neighs/atom = 731.642
Ave special neighs/atom = 0
Neighbor list builds = 585
Dangerous builds = 0
#	run             	1000
	unfix 			1
	unfix 			2
#--------------------------------------------------------------------------
#nve
#--------------------------------------------------------------------------
	fix 			1 all nve
	timestep		${dt}
	timestep		0.0010000000000000000208
	thermo_style  		custom step temp press etotal vol
	thermo			1000
	run             	100000
Memory usage per processor = 5.40665 Mbytes
Step Temp Press TotEng Volume 
  100000          300    17538.936   -1600.4081     3048.625 
  101000    296.36958    18524.201   -1600.4062     3048.625 
  102000    304.73665    10034.208   -1600.4123     3048.625 
  103000     322.2124    14437.888   -1600.4098     3048.625 
  104000    291.92808    9240.1264   -1600.4042     3048.625 
  105000    294.46881    20720.273   -1600.4073     3048.625 
  106000    315.50282    11679.947   -1600.4104     3048.625 
  107000    325.80284    6428.5297   -1600.4102     3048.625 
  108000    313.13505     13422.68   -1600.4088     3048.625 
  109000    295.96185    18232.783   -1600.4053     3048.625 
  110000    312.04946    16947.345   -1600.4082     3048.625 
  111000    330.30279    4720.9787   -1600.4113     3048.625 
  112000    320.84256    15312.214   -1600.4095     3048.625 
  113000    330.38801    7945.4365   -1600.4084     3048.625 
  114000    321.53752    9810.7443   -1600.4062     3048.625 
  115000    330.36938    12433.949   -1600.4105     3048.625 
  116000    307.42414    13785.201   -1600.4097     3048.625 
  117000    291.62089    10848.394   -1600.4019     3048.625 
  118000    309.07819    14167.269   -1600.4078     3048.625 
  119000    327.52508    4451.0325   -1600.4115     3048.625 
  120000    335.25639     13426.08   -1600.4111     3048.625 
  121000    326.35874     7227.599   -1600.4055     3048.625 
  122000    302.99084    20200.534   -1600.4135     3048.625 
  123000    310.22465    11397.457   -1600.4074     3048.625 
  124000     307.9956    11025.435   -1600.4056     3048.625 
  125000    318.90984    12937.033   -1600.4117     3048.625 
  126000    318.44511    12949.123   -1600.4069     3048.625 
  127000    281.20682    10682.719   -1600.4124     3048.625 
  128000    312.62829     11127.11   -1600.4128     3048.625 
  129000    304.56395    14385.665   -1600.4069     3048.625 
  130000    312.50737    4535.7459   -1600.4105     3048.625 
  131000    309.83802    16306.945   -1600.4081     3048.625 
  132000    268.01759    18195.001    -1600.405     3048.625 
  133000    284.84262     18144.84   -1600.4113     3048.625 
  134000    298.34174    16244.074   -1600.4121     3048.625 
  135000    310.89338     7324.611   -1600.4118     3048.625 
  136000    310.07613    12452.298   -1600.4091     3048.625 
  137000    301.95815     9906.634   -1600.4065     3048.625 
  138000    264.60395    22973.981   -1600.4102     3048.625 
  139000    289.58796    10149.037   -1600.4112     3048.625 
  140000    321.72762    10753.569   -1600.4141     3048.625 
  141000    310.48591    11350.366   -1600.4101     3048.625 
  142000     322.2428    10357.849   -1600.4081     3048.625 
  143000    302.43965     8791.731   -1600.4075     3048.625 
  144000    336.79758    7629.2166    -1600.406     3048.625 
  145000    300.11164    9294.8286    -1600.403     3048.625 
  146000    282.75976    18428.052   -1600.4059     3048.625 
  147000    284.00268    11660.497   -1600.4048     3048.625 
  148000    328.56987    12194.127   -1600.4108     3048.625 
  149000    295.07069    12002.182   -1600.4136     3048.625 
  150000    325.05361    6838.1738     -1600.41     3048.625 
  151000    323.54176    7808.5293   -1600.4147     3048.625 
  152000    260.51757    15216.328   -1600.4091     3048.625 
  153000    329.66482    10473.507   -1600.4115     3048.625 
  154000    309.16163    13232.433   -1600.4109     3048.625 
  155000    262.62787    14768.443   -1600.4112     3048.625 
  156000    349.29371    5730.7876   -1600.4138     3048.625 
  157000    243.41523    18701.094   -1600.4065     3048.625 
  158000    310.37571    15682.272   -1600.4149     3048.625 
  159000     303.7761    3713.5257     -1600.41     3048.625 
  160000    286.58229    19479.286   -1600.4081     3048.625 
  161000    304.67338    14342.831   -1600.4082     3048.625 
  162000    336.75813    4440.7838   -1600.4106     3048.625 
  163000    302.19519    12001.854   -1600.4095     3048.625 
  164000    293.14387    16572.686   -1600.4108     3048.625 
  165000     330.1734    3082.7513   -1600.4082     3048.625 
  166000    278.28443    9592.1027   -1600.4137     3048.625 
  167000     301.8059     14060.37    -1600.411     3048.625 
  168000    321.00888    5597.1672   -1600.4143     3048.625 
  169000    285.37575    10999.797   -1600.4053     3048.625 
  170000    303.87015     16811.04   -1600.4063     3048.625 
  171000    285.77202     7220.911   -1600.4089     3048.625 
  172000    327.45962    3465.3479   -1600.4075     3048.625 
  173000    259.82479    23792.303   -1600.4121     3048.625 
  174000    301.05534    9313.9388   -1600.4105     3048.625 
  175000    321.45288    10107.378   -1600.4111     3048.625 
  176000    269.65108    12318.961   -1600.4093     3048.625 
  177000    286.64068    9728.9917   -1600.4115     3048.625 
  178000     270.4745    21011.631   -1600.4087     3048.625 
  179000    333.66131    10623.394    -1600.411     3048.625 
  180000    290.90852    10314.159   -1600.4162     3048.625 
  181000    288.07266    10093.056   -1600.4142     3048.625 
  182000    335.26571    7163.8425   -1600.4153     3048.625 
  183000    281.16652    9010.4514   -1600.4086     3048.625 
  184000    309.06505    12765.415   -1600.4166     3048.625 
  185000    305.79532    8950.4262   -1600.4111     3048.625 
  186000    253.17483    16745.008   -1600.4116     3048.625 
  187000    327.88079    4700.6522   -1600.4142     3048.625 
  188000    244.86443    16799.939   -1600.4114     3048.625 
  189000    318.74932    13279.289   -1600.4096     3048.625 
  190000    278.97544    8081.0978   -1600.4061     3048.625 
  191000    317.69838     13162.52   -1600.4115     3048.625 
  192000    303.21221    9833.9714   -1600.4147     3048.625 
  193000    304.90308    11700.695   -1600.4094     3048.625 
  194000     265.6293     10789.78   -1600.4072     3048.625 
  195000    308.61701    6341.5479   -1600.4128     3048.625 
  196000    301.71131    8356.7444   -1600.4066     3048.625 
  197000    285.88086      8690.05   -1600.4053     3048.625 
  198000    304.05057    7714.0594   -1600.4055     3048.625 
  199000    320.50741    4846.8434   -1600.4098     3048.625 
  200000      275.232    17742.568   -1600.4194     3048.625 
Loop time of 1085.57 on 1 procs for 100000 steps with 240 atoms

Pair  time (%) = 1074.58 (98.9878)
Bond  time (%) = 0.0220549 (0.00203165)
Neigh time (%) = 6.68159 (0.615493)
Comm  time (%) = 2.98729 (0.275182)
Outpt time (%) = 0.00319362 (0.000294189)
Other time (%) = 1.29416 (0.119215)

Nlocal:    240 ave 240 max 240 min
Histogram: 1 0 0 0 0 0 0 0 0 0
Nghost:    5817 ave 5817 max 5817 min
Histogram: 1 0 0 0 0 0 0 0 0 0
Neighs:    87924 ave 87924 max 87924 min
Histogram: 1 0 0 0 0 0 0 0 0 0
FullNghs:  175848 ave 175848 max 175848 min
Histogram: 1 0 0 0 0 0 0 0 0 0

Total # of neighbors = 175848
Ave neighs/atom = 732.7
Ave special neighs/atom = 0
Neighbor list builds = 948
Dangerous builds = 0
#	run             	10000
	unfix 			1
#--------------------------------------------------------------------------
#kappa
#--------------------------------------------------------------------------
log 	log_kappa_${iseed}.lammps
log 	log_kappa_7.lammps
