
#--------------------------------------------------------------------------
#nve rescale
#--------------------------------------------------------------------------
	velocity 		all create ${T_run} ${seed} rot yes dist gaussian
	velocity 		all create 300 ${seed} rot yes dist gaussian
	velocity 		all create 300 88888 rot yes dist gaussian

	fix 			1 all nve
	fix 			2 all temp/rescale 1 ${T_run} ${T_run} 0.01 1.0
	fix 			2 all temp/rescale 1 300 ${T_run} 0.01 1.0
	fix 			2 all temp/rescale 1 300 300 0.01 1.0
	timestep		${dt}
	timestep		0.0010000000000000000208
	thermo_style  		custom step temp press etotal vol
	thermo			1000
	run             	100000
Memory usage per processor = 4.94889 Mbytes
Step Temp Press TotEng Volume 
       0          300    170606.47   -1574.3912     3048.625 
    1000          300   -32989.543   -1595.6522     3048.625 
    2000          300   -28057.191   -1596.9391     3048.625 
    3000          300    -13393.48   -1597.8646     3048.625 
    4000          300    10222.855   -1597.1753     3048.625 
    5000          300    24258.982   -1597.5132     3048.625 
    6000          300    22562.985   -1597.3209     3048.625 
    7000          300    19287.378   -1598.5748     3048.625 
    8000          300    4208.7242   -1597.3043     3048.625 
    9000          300   -7415.2883   -1597.7218     3048.625 
   10000          300   -9983.5432   -1597.4898     3048.625 
   11000          300    1498.6545   -1598.0569     3048.625 
   12000          300    17922.202   -1598.2633     3048.625 
   13000          300    22400.643   -1598.1011     3048.625 
   14000          300    10354.197    -1598.505     3048.625 
   15000          300    360.38664   -1598.0343     3048.625 
   16000          300    -6960.088   -1597.1278     3048.625 
   17000          300    846.29526   -1597.8351     3048.625 
   18000          300    17561.924   -1597.6415     3048.625 
   19000          300    9757.0716   -1598.1124     3048.625 
   20000          300   -7071.9126   -1597.8286     3048.625 
   21000          300   -1481.4593    -1597.943     3048.625 
   22000          300    7963.1174   -1597.7924     3048.625 
   23000          300    8689.7266   -1598.8774     3048.625 
   24000          300    3675.3067   -1597.7201     3048.625 
   25000          300   -494.00752   -1598.1967     3048.625 
   26000          300   -1219.4697   -1598.6566     3048.625 
   27000          300    8799.6278   -1598.1032     3048.625 
   28000          300    7518.4217   -1597.6674     3048.625 
   29000          300      9119.44   -1597.9531     3048.625 
   30000          300    1318.1632   -1598.0997     3048.625 
   31000          300    6481.4296   -1598.3062     3048.625 
   32000          300    12079.865   -1597.9538     3048.625 
   33000          300    3911.3257   -1598.0769     3048.625 
   34000          300   -734.50594   -1598.0901     3048.625 
   35000          300    13149.945   -1597.9552     3048.625 
   36000          300    4564.9857    -1598.573     3048.625 
   37000          300    2472.3555   -1598.6997     3048.625 
   38000          300    1318.0476   -1597.4291     3048.625 
   39000          300    10352.383   -1596.6223     3048.625 
   40000          300    12229.001   -1597.9811     3048.625 
   41000          300    -953.8648   -1598.6418     3048.625 
   42000          300   -723.01962   -1598.0058     3048.625 
   43000          300     20257.74   -1598.6826     3048.625 
   44000          300     13810.25   -1598.3398     3048.625 
   45000          300    3210.3301   -1597.5086     3048.625 
   46000          300    3848.9903   -1597.5941     3048.625 
   47000          300    13138.853   -1598.0828     3048.625 
   48000          300    12135.569   -1598.8888     3048.625 
   49000          300   -140.41949   -1599.3776     3048.625 
   50000          300     9767.182   -1599.5102     3048.625 
   51000          300    4749.9603   -1599.0006     3048.625 
   52000          300    5130.3891   -1599.0699     3048.625 
   53000          300    6943.5719   -1599.2091     3048.625 
   54000          300    8800.0204   -1599.9255     3048.625 
   55000          300    4607.7317   -1598.8874     3048.625 
   56000          300    6453.3845   -1599.5336     3048.625 
   57000          300     13580.99   -1599.2376     3048.625 
   58000          300    14501.738   -1598.2861     3048.625 
   59000          300    15795.856   -1598.2963     3048.625 
   60000          300    3292.5679   -1595.7592     3048.625 
   61000          300     10525.75    -1598.281     3048.625 
   62000          300    22006.461   -1599.1845     3048.625 
   63000          300    11278.768   -1598.3738     3048.625 
   64000          300    15765.153   -1598.9203     3048.625 
   65000          300    18851.233   -1598.6934     3048.625 
   66000          300    9378.0176   -1599.5433     3048.625 
   67000          300    6191.9904   -1599.6566     3048.625 
   68000          300    12571.103   -1598.2765     3048.625 
   69000          300     16770.55    -1598.301     3048.625 
   70000          300    6449.1182   -1599.5131     3048.625 
   71000          300     10109.81   -1599.4249     3048.625 
   72000          300    14219.094   -1599.7797     3048.625 
   73000          300    8857.8192   -1599.8998     3048.625 
   74000          300    14057.717   -1600.4278     3048.625 
   75000          300    4594.7459   -1600.2154     3048.625 
   76000          300    8626.0488   -1600.0628     3048.625 
   77000          300    7617.2736   -1600.1866     3048.625 
   78000          300    11557.936   -1601.4218     3048.625 
   79000          300    9738.3638   -1600.1992     3048.625 
   80000          300    19177.867   -1599.9042     3048.625 
   81000          300    6631.2514   -1600.8044     3048.625 
   82000          300    17585.059   -1600.7168     3048.625 
   83000          300    10790.206   -1600.5106     3048.625 
   84000          300    12049.619   -1600.6385     3048.625 
   85000          300    12358.919   -1600.4671     3048.625 
   86000          300    3540.7668   -1600.5292     3048.625 
   87000          300    15709.076   -1600.6462     3048.625 
   88000          300    6540.1659   -1601.5314     3048.625 
   89000          300     11889.69   -1601.5202     3048.625 
   90000          300    12912.024   -1599.3905     3048.625 
   91000          300    15932.485   -1600.0092     3048.625 
   92000          300    13472.244   -1601.3209     3048.625 
   93000          300    13557.362   -1600.7372     3048.625 
   94000          300      8871.32   -1600.9554     3048.625 
   95000          300    13272.878   -1600.9329     3048.625 
   96000          300    11493.203   -1601.5027     3048.625 
   97000          300    5026.9851   -1601.9178     3048.625 
   98000          300    9048.3691    -1602.005     3048.625 
   99000          300    1138.1275   -1602.6716     3048.625 
  100000          300    15207.013   -1602.0644     3048.625 
Loop time of 1072.17 on 1 procs for 100000 steps with 240 atoms

Pair  time (%) = 1063.02 (99.1474)
Bond  time (%) = 0.0285938 (0.00266692)
Neigh time (%) = 4.71929 (0.440165)
Comm  time (%) = 2.91942 (0.272292)
Outpt time (%) = 0.00296068 (0.00027614)
Other time (%) = 1.47078 (0.137179)

Nlocal:    240 ave 240 max 240 min
Histogram: 1 0 0 0 0 0 0 0 0 0
Nghost:    5829 ave 5829 max 5829 min
Histogram: 1 0 0 0 0 0 0 0 0 0
Neighs:    87941 ave 87941 max 87941 min
Histogram: 1 0 0 0 0 0 0 0 0 0
FullNghs:  175882 ave 175882 max 175882 min
Histogram: 1 0 0 0 0 0 0 0 0 0

Total # of neighbors = 175882
Ave neighs/atom = 732.842
Ave special neighs/atom = 0
Neighbor list builds = 639
Dangerous builds = 0
#	run             	1000
	unfix 			1
	unfix 			2
#--------------------------------------------------------------------------
#nve
#--------------------------------------------------------------------------
	fix 			1 all nve
	timestep		${dt}
	timestep		0.0010000000000000000208
	thermo_style  		custom step temp press etotal vol
	thermo			1000
	run             	100000
Memory usage per processor = 5.40665 Mbytes
Step Temp Press TotEng Volume 
  100000          300    15207.013   -1602.0644     3048.625 
  101000    284.10057    4828.9502   -1602.0591     3048.625 
  102000    289.27308    9786.3064   -1602.0617     3048.625 
  103000    295.36831    14369.291   -1602.0704     3048.625 
  104000    289.28845    12034.034   -1602.0652     3048.625 
  105000    290.09445    8909.0732   -1602.0616     3048.625 
  106000    289.39856    17560.842   -1602.0645     3048.625 
  107000    290.47745    4101.8246   -1602.0661     3048.625 
  108000     291.3562     12310.55   -1602.0644     3048.625 
  109000    291.40222     12201.61   -1602.0661     3048.625 
  110000    284.61105    4011.9546   -1602.0645     3048.625 
  111000    283.16515    9998.4981   -1602.0594     3048.625 
  112000     315.7509    6252.8707   -1602.0644     3048.625 
  113000    299.46714    14368.684   -1602.0639     3048.625 
  114000    291.02199    3779.0505   -1602.0634     3048.625 
  115000    312.41767    8155.9398   -1602.0674     3048.625 
  116000    308.26125    10513.389   -1602.0664     3048.625 
  117000    299.35425    4108.2005   -1602.0642     3048.625 
  118000    307.08332    5799.1247   -1602.0662     3048.625 
  119000    278.47213    12581.504    -1602.066     3048.625 
  120000    278.59506    13878.407   -1602.0644     3048.625 
  121000    258.07956    14308.039   -1602.0681     3048.625 
  122000    295.24343    11145.971   -1602.0643     3048.625 
  123000    278.34347    11659.983   -1602.0623     3048.625 
  124000    261.32361    20007.683   -1602.0647     3048.625 
  125000    275.93363    9020.8291   -1602.0674     3048.625 
  126000    306.73942    10409.521   -1602.0649     3048.625 
  127000    281.38177    14156.625   -1602.0634     3048.625 
  128000    280.79751    6221.2006   -1602.0629     3048.625 
  129000    264.66357    14691.941   -1602.0655     3048.625 
  130000    293.39414    6174.8652   -1602.0653     3048.625 
  131000    265.45745    11263.338   -1602.0665     3048.625 
  132000    257.99069    15592.536   -1602.0653     3048.625 
  133000    261.49954    15581.531   -1602.0637     3048.625 
  134000    265.51474    12758.818   -1602.0655     3048.625 
  135000    291.43552    10087.933   -1602.0653     3048.625 
  136000    299.49505    7576.3522   -1602.0679     3048.625 
  137000    302.88214    10178.839   -1602.0681     3048.625 
  138000    291.89388    6071.3589    -1602.064     3048.625 
  139000    293.48455    7982.5737   -1602.0667     3048.625 
  140000    281.53711    4162.7389   -1602.0671     3048.625 
  141000    275.63548    17948.976    -1602.066     3048.625 
  142000    241.21318    14767.981   -1602.0648     3048.625 
  143000    258.33082    14989.229   -1602.0708     3048.625 
  144000    276.72936    16169.617   -1602.0669     3048.625 
  145000    254.17457    11045.288   -1602.0631     3048.625 
  146000    279.84842     13317.13   -1602.0665     3048.625 
  147000    291.84563    8018.3625   -1602.0685     3048.625 
  148000    282.66273    12544.197   -1602.0694     3048.625 
  149000    271.64029    13948.476   -1602.0647     3048.625 
  150000    277.91439    12757.574   -1602.0693     3048.625 
  151000    293.26672    8388.8369   -1602.0713     3048.625 
  152000    282.11483    12920.005   -1602.0626     3048.625 
  153000    293.80095    8950.7005   -1602.0698     3048.625 
  154000    289.31322    12114.913   -1602.0683     3048.625 
  155000     251.3183    19159.936   -1602.0613     3048.625 
  156000     257.8782    13291.775   -1602.0675     3048.625 
  157000    255.92209    17392.318   -1602.0677     3048.625 
  158000    254.00216    19554.692    -1602.067     3048.625 
  159000    240.61271    11237.837   -1602.0673     3048.625 
  160000    254.51538    17305.008    -1602.065     3048.625 
  161000    231.76212    21334.012   -1602.0674     3048.625 
  162000    246.70505     12663.97   -1602.0641     3048.625 
  163000    294.32401    13629.625   -1602.0651     3048.625 
  164000    245.66454    15414.677   -1602.0607     3048.625 
  165000    293.75055    8259.8399   -1602.0649     3048.625 
  166000    226.42607    13613.411   -1602.0646     3048.625 
  167000    270.05412    11888.645   -1602.0672     3048.625 
  168000    260.90866    12636.911   -1602.0632     3048.625 
  169000    221.25325    16194.198   -1602.0622     3048.625 
  170000    291.99193    14192.437   -1602.0658     3048.625 
  171000    313.39578    6446.6971   -1602.0718     3048.625 
  172000    248.12568    16143.196   -1602.0633     3048.625 
  173000     263.4056    10087.109   -1602.0685     3048.625 
  174000    236.47253    25535.973    -1602.069     3048.625 
  175000    214.08415    17529.251   -1602.0659     3048.625 
  176000    233.57116     18486.84   -1602.0702     3048.625 
  177000    247.35218      20371.9   -1602.0683     3048.625 
  178000    259.65905    16329.092   -1602.0675     3048.625 
  179000    274.29222    12254.822   -1602.0649     3048.625 
  180000    266.22542    12184.498   -1602.0658     3048.625 
  181000    284.31226    14144.867   -1602.0693     3048.625 
  182000    264.17888    11314.268   -1602.0697     3048.625 
  183000     219.2518    19985.531   -1602.0658     3048.625 
  184000    237.16737    15931.445   -1602.0672     3048.625 
  185000    232.39173    21610.479   -1602.0684     3048.625 
  186000    246.31496    13338.896    -1602.067     3048.625 
  187000    278.47631    11056.685    -1602.068     3048.625 
  188000     275.3564    11480.039   -1602.0673     3048.625 
  189000    259.81423    14261.227   -1602.0602     3048.625 
  190000    249.82505     14114.72   -1602.0679     3048.625 
  191000    231.73116    19490.018   -1602.0651     3048.625 
  192000    260.61303    14475.268   -1602.0655     3048.625 
  193000    258.55679     13396.58   -1602.0657     3048.625 
  194000    271.44038    11411.188   -1602.0721     3048.625 
  195000    277.24725    7733.0711   -1602.0649     3048.625 
  196000    283.34159    9610.7022   -1602.0651     3048.625 
  197000    274.90343    10284.407   -1602.0681     3048.625 
  198000    281.56626    10979.722   -1602.0702     3048.625 
  199000    264.32732    7732.1544   -1602.0658     3048.625 
  200000    272.76112      14103.9    -1602.067     3048.625 
Loop time of 1075.38 on 1 procs for 100000 steps with 240 atoms

Pair  time (%) = 1063.99 (98.9406)
Bond  time (%) = 0.0250754 (0.00233178)
Neigh time (%) = 7.07028 (0.657468)
Comm  time (%) = 2.98276 (0.277368)
Outpt time (%) = 0.0031476 (0.000292697)
Other time (%) = 1.31088 (0.121899)

Nlocal:    240 ave 240 max 240 min
Histogram: 1 0 0 0 0 0 0 0 0 0
Nghost:    5796 ave 5796 max 5796 min
Histogram: 1 0 0 0 0 0 0 0 0 0
Neighs:    87843 ave 87843 max 87843 min
Histogram: 1 0 0 0 0 0 0 0 0 0
FullNghs:  175686 ave 175686 max 175686 min
Histogram: 1 0 0 0 0 0 0 0 0 0

Total # of neighbors = 175686
Ave neighs/atom = 732.025
Ave special neighs/atom = 0
Neighbor list builds = 959
Dangerous builds = 0
#	run             	10000
	unfix 			1
#--------------------------------------------------------------------------
#kappa
#--------------------------------------------------------------------------
log 	log_kappa_${iseed}.lammps
log 	log_kappa_8.lammps
