
#--------------------------------------------------------------------------
#nve rescale
#--------------------------------------------------------------------------
	velocity 		all create ${T_run} ${seed} rot yes dist gaussian
	velocity 		all create 300 ${seed} rot yes dist gaussian
	velocity 		all create 300 99999 rot yes dist gaussian

	fix 			1 all nve
	fix 			2 all temp/rescale 1 ${T_run} ${T_run} 0.01 1.0
	fix 			2 all temp/rescale 1 300 ${T_run} 0.01 1.0
	fix 			2 all temp/rescale 1 300 300 0.01 1.0
	timestep		${dt}
	timestep		0.0010000000000000000208
	thermo_style  		custom step temp press etotal vol
	thermo			1000
	run             	100000
Memory usage per processor = 4.94889 Mbytes
Step Temp Press TotEng Volume 
       0          300    170606.47   -1574.3912     3048.625 
    1000          300   -13676.724   -1597.5157     3048.625 
    2000          300   -11380.861   -1597.7799     3048.625 
    3000          300    8206.8773   -1597.1118     3048.625 
    4000          300    34498.899   -1598.2735     3048.625 
    5000          300    23906.542   -1598.1208     3048.625 
    6000          300    11972.471   -1597.7243     3048.625 
    7000          300   -5963.9018   -1597.4119     3048.625 
    8000          300   -16721.327   -1597.8289     3048.625 
    9000          300   -7554.9956   -1597.7884     3048.625 
   10000          300    16527.486   -1597.9055     3048.625 
   11000          300    17245.817   -1597.8989     3048.625 
   12000          300    22021.246   -1598.1718     3048.625 
   13000          300    7098.6381   -1598.5323     3048.625 
   14000          300   -13550.961   -1597.1781     3048.625 
   15000          300   -10861.204   -1597.5951     3048.625 
   16000          300   -3544.4647   -1597.9803     3048.625 
   17000          300    12132.287   -1598.0603     3048.625 
   18000          300    15769.398   -1598.3205     3048.625 
   19000          300    9466.9709   -1598.3138     3048.625 
   20000          300     1012.104   -1597.3992     3048.625 
   21000          300   -1541.1986   -1598.3508     3048.625 
   22000          300    9443.1786   -1598.1239     3048.625 
   23000          300    10411.279   -1597.4423     3048.625 
   24000          300    4523.9597   -1597.6622     3048.625 
   25000          300    6036.2987   -1598.3646     3048.625 
   26000          300    -944.2744   -1597.8663     3048.625 
   27000          300    12002.053   -1597.0294     3048.625 
   28000          300    10944.427   -1598.4996     3048.625 
   29000          300    398.94801   -1598.1534     3048.625 
   30000          300   -1770.0221   -1597.6174     3048.625 
   31000          300    11591.519   -1597.4277     3048.625 
   32000          300    11779.668   -1598.7055     3048.625 
   33000          300    -2.412305   -1598.6202     3048.625 
   34000          300   -142.48864   -1598.1038     3048.625 
   35000          300     7446.777   -1597.7815     3048.625 
   36000          300    11543.863   -1598.5364     3048.625 
   37000          300    8365.9619   -1598.2672     3048.625 
   38000          300    977.70402   -1597.9009     3048.625 
   39000          300    2052.2077   -1597.5053     3048.625 
   40000          300    12982.176   -1598.0161     3048.625 
   41000          300    10323.945   -1597.6791     3048.625 
   42000          300    3558.5967   -1598.2445     3048.625 
   43000          300     2439.973    -1598.113     3048.625 
   44000          300     13251.84   -1597.8755     3048.625 
   45000          300    3143.1967   -1597.9444     3048.625 
   46000          300    220.82358   -1599.2595     3048.625 
   47000          300    9879.0905   -1598.8049     3048.625 
   48000          300    4876.9829   -1598.9359     3048.625 
   49000          300    7162.7711   -1598.2853     3048.625 
   50000          300    3020.5861   -1598.5681     3048.625 
   51000          300    7300.8407   -1599.0196     3048.625 
   52000          300    7954.0821   -1599.2761     3048.625 
   53000          300    10056.317   -1598.9879     3048.625 
   54000          300    8172.7225   -1598.6027     3048.625 
   55000          300    8695.2243   -1598.4826     3048.625 
   56000          300    4743.8477    -1597.487     3048.625 
   57000          300    7546.0502   -1598.9603     3048.625 
   58000          300    9501.6379    -1599.407     3048.625 
   59000          300    12280.316    -1598.221     3048.625 
   60000          300    10015.066   -1598.9071     3048.625 
   61000          300    7123.9309   -1599.1145     3048.625 
   62000          300    10147.865   -1599.8631     3048.625 
   63000          300    4333.8254   -1599.2476     3048.625 
   64000          300    12397.375   -1599.6288     3048.625 
   65000          300    13861.165   -1599.1543     3048.625 
   66000          300    3201.6263   -1598.9905     3048.625 
   67000          300    1650.5382   -1599.5401     3048.625 
   68000          300    7562.9118   -1599.3017     3048.625 
   69000          300    13063.098   -1600.2365     3048.625 
   70000          300    1101.7375   -1599.5653     3048.625 
   71000          300    13888.583   -1599.8102     3048.625 
   72000          300    10372.939    -1599.839     3048.625 
   73000          300    10964.209   -1599.1037     3048.625 
   74000          300    17374.882   -1600.0819     3048.625 
   75000          300    7112.0623   -1597.8464     3048.625 
   76000          300    13296.117    -1598.719     3048.625 
   77000          300    19546.836   -1598.8512     3048.625 
   78000          300      4570.47   -1600.4602     3048.625 
   79000          300    13844.079   -1600.3953     3048.625 
   80000          300    7301.7516   -1599.7886     3048.625 
   81000          300    12041.629   -1599.8272     3048.625 
   82000          300    13695.542   -1600.4498     3048.625 
   83000          300    7115.5212   -1600.8316     3048.625 
   84000          300    6356.3482   -1601.4489     3048.625 
   85000          300    14614.177   -1600.6986     3048.625 
   86000          300    13088.223   -1600.6681     3048.625 
   87000          300    13457.342   -1599.9887     3048.625 
   88000     299.9934    13585.774   -1599.6506     3048.625 
   89000          300    10484.734   -1601.5509     3048.625 
   90000          300    9816.0955    -1601.811     3048.625 
   91000          300   -2073.6761   -1601.4441     3048.625 
   92000          300    15940.302   -1600.7344     3048.625 
   93000          300    21569.315   -1598.5645     3048.625 
   94000          300    13820.984    -1599.799     3048.625 
   95000          300      11195.6   -1601.5344     3048.625 
   96000          300    11416.322   -1599.7572     3048.625 
   97000          300    12543.047   -1601.4502     3048.625 
   98000          300    15223.931   -1600.5813     3048.625 
   99000          300    17693.873   -1599.6441     3048.625 
  100000          300    31136.451   -1596.9996     3048.625 
Loop time of 1070.5 on 1 procs for 100000 steps with 240 atoms

Pair  time (%) = 1061.83 (99.19)
Bond  time (%) = 0.0297959 (0.00278336)
Neigh time (%) = 4.1942 (0.391798)
Comm  time (%) = 2.94732 (0.275322)
Outpt time (%) = 0.00296974 (0.000277416)
Other time (%) = 1.49691 (0.139832)

Nlocal:    240 ave 240 max 240 min
Histogram: 1 0 0 0 0 0 0 0 0 0
Nghost:    5838 ave 5838 max 5838 min
Histogram: 1 0 0 0 0 0 0 0 0 0
Neighs:    87882 ave 87882 max 87882 min
Histogram: 1 0 0 0 0 0 0 0 0 0
FullNghs:  175764 ave 175764 max 175764 min
Histogram: 1 0 0 0 0 0 0 0 0 0

Total # of neighbors = 175764
Ave neighs/atom = 732.35
Ave special neighs/atom = 0
Neighbor list builds = 593
Dangerous builds = 0
#	run             	1000
	unfix 			1
	unfix 			2
#--------------------------------------------------------------------------
#nve
#--------------------------------------------------------------------------
	fix 			1 all nve
	timestep		${dt}
	timestep		0.0010000000000000000208
	thermo_style  		custom step temp press etotal vol
	thermo			1000
	run             	100000
Memory usage per processor = 5.40665 Mbytes
Step Temp Press TotEng Volume 
  100000          300    31136.451   -1596.9996     3048.625 
  101000    357.85873    11557.495   -1596.9943     3048.625 
  102000    371.72236    19420.688   -1596.9918     3048.625 
  103000    398.55696    15362.223   -1596.9987     3048.625 
  104000     371.5692    24114.602   -1596.9995     3048.625 
  105000    365.56045     11676.27   -1596.9986     3048.625 
  106000    374.45428    18120.857   -1596.9967     3048.625 
  107000     367.2195    13426.743   -1596.9953     3048.625 
  108000    390.13245     11977.76   -1596.9979     3048.625 
  109000    396.65745    4866.6575   -1596.9943     3048.625 
  110000    355.99031    15739.787   -1597.0053     3048.625 
  111000    383.55156    14132.846   -1596.9947     3048.625 
  112000    363.58964    16931.228   -1597.0018     3048.625 
  113000    347.05459    15312.758   -1596.9985     3048.625 
  114000    413.30548    8963.3115   -1597.0035     3048.625 
  115000    383.69738    18207.673   -1597.0059     3048.625 
  116000    345.13699    17318.131    -1596.996     3048.625 
  117000    352.84326    17544.408   -1596.9921     3048.625 
  118000    374.17217    7972.1408   -1596.9945     3048.625 
  119000    372.00252      16418.2   -1597.0036     3048.625 
  120000    340.14465    22637.285   -1596.9991     3048.625 
  121000    382.03318     8191.289   -1597.0059     3048.625 
  122000     362.5869    15737.489   -1596.9949     3048.625 
  123000    361.02697    16835.344   -1597.0046     3048.625 
  124000    361.58926    5338.5809   -1597.0023     3048.625 
  125000    390.04236    17694.716   -1596.9976     3048.625 
  126000    356.25849    14474.051   -1596.9979     3048.625 
  127000    390.66782    14014.413   -1597.0026     3048.625 
  128000    388.00999    9722.0917   -1597.0002     3048.625 
  129000    372.49059     20298.51   -1597.0011     3048.625 
  130000    421.32123   -1257.3787    -1597.004     3048.625 
  131000    403.18456    5934.0999   -1596.9967     3048.625 
  132000    401.69029    7700.9393   -1596.9989     3048.625 
  133000    389.48174    10611.111   -1596.9976     3048.625 
  134000    420.70275    2673.9592   -1597.0101     3048.625 
  135000    410.80904    6779.0319   -1597.0038     3048.625 
  136000    405.45077    2784.7164   -1597.0018     3048.625 
  137000    403.43776        14577   -1597.0032     3048.625 
  138000    402.86252    9296.8933   -1596.9992     3048.625 
  139000     380.2397    4959.7344   -1596.9979     3048.625 
  140000    381.13266    1717.2736   -1596.9963     3048.625 
  141000    400.10384    14801.361   -1597.0024     3048.625 
  142000    413.83204    331.88243   -1597.0061     3048.625 
  143000    381.96517    11268.765   -1596.9953     3048.625 
  144000    381.85798    11221.546   -1596.9985     3048.625 
  145000    402.96599    4878.2157   -1597.0006     3048.625 
  146000     399.0916     9882.278   -1596.9996     3048.625 
  147000     389.0275     7315.099        -1597     3048.625 
  148000    385.56453    10926.158   -1596.9951     3048.625 
  149000    354.59336    13350.238   -1596.9962     3048.625 
  150000    400.89352    8041.3814   -1597.0104     3048.625 
  151000     398.1227    7027.0206   -1596.9992     3048.625 
  152000     387.9961    10953.465   -1597.0053     3048.625 
  153000    374.86907    12978.402   -1596.9975     3048.625 
  154000    365.99219    7336.0124    -1597.001     3048.625 
  155000    357.77937    17273.269   -1596.9993     3048.625 
  156000    382.79979    6361.9196   -1597.0011     3048.625 
  157000    425.34701    9285.8309   -1597.0044     3048.625 
  158000    371.83797    6454.9198   -1596.9972     3048.625 
  159000    387.11727    4847.7589   -1597.0035     3048.625 
  160000    382.62154    15913.928   -1597.0027     3048.625 
  161000    360.07334    19654.694   -1597.0025     3048.625 
  162000    339.44603    14785.417   -1597.0081     3048.625 
  163000    383.26013    10728.353   -1597.0081     3048.625 
  164000    381.90586    10548.046   -1596.9978     3048.625 
  165000    386.38987    14588.984   -1596.9965     3048.625 
  166000    370.60718    15505.277    -1596.998     3048.625 
  167000    361.02532     13406.27   -1597.0007     3048.625 
  168000    368.11188    5075.8486   -1596.9986     3048.625 
  169000    373.49665    18509.625   -1597.0074     3048.625 
  170000    366.99547    6174.5081    -1596.998     3048.625 
  171000    365.88443    16694.639    -1597.005     3048.625 
  172000     366.8396    10791.498   -1597.0055     3048.625 
  173000    368.68246    2813.7347   -1597.0044     3048.625 
  174000    388.92353    10625.788   -1597.0119     3048.625 
  175000    402.76089    3500.1464    -1597.004     3048.625 
  176000    373.03172    14536.437    -1597.003     3048.625 
  177000    373.77596     16940.62   -1597.0051     3048.625 
  178000    319.12576    19049.546   -1597.0017     3048.625 
  179000    338.56561    8532.0966   -1597.0065     3048.625 
  180000    341.13933    19666.324   -1597.0017     3048.625 
  181000    335.47586    13351.375   -1597.0056     3048.625 
  182000    389.08932    10446.426   -1597.0063     3048.625 
  183000     373.0857    14707.302   -1597.0084     3048.625 
  184000     378.6602    13679.504   -1597.0102     3048.625 
  185000    381.06401    17171.601   -1597.0073     3048.625 
  186000    380.00107    3780.2843   -1597.0022     3048.625 
  187000    357.47468    9755.8128   -1597.0113     3048.625 
  188000    333.40749    16894.618   -1597.0037     3048.625 
  189000    363.28644    8642.7497   -1597.0055     3048.625 
  190000    347.16816    20593.517   -1597.0103     3048.625 
  191000    362.01156    8880.7826   -1596.9989     3048.625 
  192000     371.4861    9739.9751    -1596.996     3048.625 
  193000      379.094    12906.731    -1596.997     3048.625 
  194000    374.66335    6941.1113   -1597.0052     3048.625 
  195000     363.6965    15699.606   -1596.9999     3048.625 
  196000    367.52682    8111.6356   -1597.0009     3048.625 
  197000    364.86603    7580.0769   -1597.0036     3048.625 
  198000    346.61104    13944.348   -1597.0065     3048.625 
  199000    347.92595    12964.704   -1597.0038     3048.625 
  200000    361.01943    14694.119   -1597.0095     3048.625 
Loop time of 1068.76 on 1 procs for 100000 steps with 240 atoms

Pair  time (%) = 1056.78 (98.879)
Bond  time (%) = 0.0196679 (0.00184024)
Neigh time (%) = 7.71382 (0.721751)
Comm  time (%) = 2.9613 (0.277077)
Outpt time (%) = 0.00313401 (0.000293237)
Other time (%) = 1.28243 (0.119992)

Nlocal:    240 ave 240 max 240 min
Histogram: 1 0 0 0 0 0 0 0 0 0
Nghost:    5796 ave 5796 max 5796 min
Histogram: 1 0 0 0 0 0 0 0 0 0
Neighs:    87953 ave 87953 max 87953 min
Histogram: 1 0 0 0 0 0 0 0 0 0
FullNghs:  175906 ave 175906 max 175906 min
Histogram: 1 0 0 0 0 0 0 0 0 0

Total # of neighbors = 175906
Ave neighs/atom = 732.942
Ave special neighs/atom = 0
Neighbor list builds = 1094
Dangerous builds = 0
#	run             	10000
	unfix 			1
#--------------------------------------------------------------------------
#kappa
#--------------------------------------------------------------------------
log 	log_kappa_${iseed}.lammps
log 	log_kappa_9.lammps
