
#--------------------------------------------------------------------------
#nve rescale
#--------------------------------------------------------------------------
	velocity 		all create ${T_run} ${seed} rot yes dist gaussian
	velocity 		all create 300 ${seed} rot yes dist gaussian
	velocity 		all create 300 66666 rot yes dist gaussian

	fix 			1 all nve
	fix 			2 all temp/rescale 1 ${T_run} ${T_run} 0.01 1.0
	fix 			2 all temp/rescale 1 300 ${T_run} 0.01 1.0
	fix 			2 all temp/rescale 1 300 300 0.01 1.0
	timestep		${dt}
	timestep		0.0010000000000000000208
	thermo_style  		custom step temp press etotal vol
	thermo			1000
	run             	100000
Memory usage per processor = 4.94889 Mbytes
Step Temp Press TotEng Volume 
       0          300    170606.47   -1574.3912     3048.625 
    1000          300   -22896.779   -1596.9264     3048.625 
    2000          300   -22472.674   -1596.8619     3048.625 
    3000          300    3314.5503   -1597.5548     3048.625 
    4000          300    29846.486     -1597.72     3048.625 
    5000          300    35010.663   -1598.1072     3048.625 
    6000          300    33697.991    -1598.036     3048.625 
    7000          300    8859.2847   -1597.7706     3048.625 
    8000          300   -6076.2902   -1597.6757     3048.625 
    9000          300   -24182.409   -1597.8233     3048.625 
   10000          300   -13424.011   -1597.5777     3048.625 
   11000          300    6371.0363   -1597.8054     3048.625 
   12000          300    21490.876   -1597.8394     3048.625 
   13000          300    27063.586   -1597.1766     3048.625 
   14000          300    12846.143   -1597.1576     3048.625 
   15000          300   -9623.0678   -1597.1397     3048.625 
   16000          300   -7271.6219   -1597.5337     3048.625 
   17000          300    5130.7254   -1597.8966     3048.625 
   18000          300      13441.1   -1597.7637     3048.625 
   19000          300    8076.3015   -1598.1384     3048.625 
   20000          300   -2485.7418   -1597.2748     3048.625 
   21000          300   -5496.9439   -1597.8253     3048.625 
   22000          300    1055.8112    -1597.398     3048.625 
   23000          300    8038.9819    -1597.314     3048.625 
   24000          300    7636.1778    -1598.082     3048.625 
   25000          300    5471.1469   -1597.9797     3048.625 
   26000          300      -10.904   -1596.8692     3048.625 
   27000          300    20.960379   -1597.9096     3048.625 
   28000          300    5683.7788   -1597.5256     3048.625 
   29000          300    8938.3629   -1597.3098     3048.625 
   30000          300    9764.9295   -1597.7115     3048.625 
   31000          300    11852.836   -1598.1129     3048.625 
   32000          300    1907.7963   -1597.4827     3048.625 
   33000          300    6512.4298   -1597.8863     3048.625 
   34000          300    911.74399   -1597.4687     3048.625 
   35000          300    8972.8095   -1598.1186     3048.625 
   36000          300    2323.8827   -1597.9893     3048.625 
   37000          300    -590.3236   -1597.4502     3048.625 
   38000          300   -5937.2745    -1598.226     3048.625 
   39000          300    9830.8224    -1598.237     3048.625 
   40000          300    6592.5669   -1598.2393     3048.625 
   41000          300   -1144.2607   -1597.8371     3048.625 
   42000          300    6056.2053   -1598.6813     3048.625 
   43000          300    9905.9515   -1598.0274     3048.625 
   44000          300    4983.2154   -1598.6668     3048.625 
   45000          300    2557.8961    -1598.907     3048.625 
   46000          300    3912.0641   -1597.7757     3048.625 
   47000          300    13291.653   -1598.9586     3048.625 
   48000          300   -640.08157   -1598.6286     3048.625 
   49000          300    8684.6837     -1598.21     3048.625 
   50000          300    2937.3163   -1598.1838     3048.625 
   51000          300    1250.9959   -1599.4796     3048.625 
   52000          300    3042.2066   -1599.3122     3048.625 
   53000          300    8426.0467   -1598.9197     3048.625 
   54000          300    5682.1067   -1599.5702     3048.625 
   55000          300    5640.9013   -1599.7934     3048.625 
   56000          300    4818.1856   -1598.7923     3048.625 
   57000          300    7191.8889   -1599.3137     3048.625 
   58000          300    3606.1453    -1599.213     3048.625 
   59000          300   -1793.7814   -1599.6125     3048.625 
   60000          300     5892.776   -1599.7259     3048.625 
   61000          300    5308.2085   -1599.5261     3048.625 
   62000          300   -1393.0045   -1599.8238     3048.625 
   63000          300    1537.7934   -1599.9658     3048.625 
   64000          300    13120.086   -1599.3732     3048.625 
   65000          300    2240.7541   -1600.2846     3048.625 
   66000          300    3097.0994   -1600.1481     3048.625 
   67000          300    5396.0102     -1600.74     3048.625 
   68000          300    3186.7996   -1600.5384     3048.625 
   69000          300    4422.8856   -1600.2377     3048.625 
   70000          300    6956.9986   -1600.1644     3048.625 
   71000          300    7712.8313   -1600.5877     3048.625 
   72000          300    10109.041   -1600.2498     3048.625 
   73000          300    2803.4535   -1600.4262     3048.625 
   74000          300    5538.7251   -1600.9541     3048.625 
   75000          300    5060.8379   -1600.9409     3048.625 
   76000          300    2727.8063   -1600.8554     3048.625 
   77000          300    11220.374   -1600.7422     3048.625 
   78000          300    11783.982   -1600.6069     3048.625 
   79000          300   -1277.8167   -1600.7258     3048.625 
   80000          300    5687.5866   -1601.0147     3048.625 
   81000          300    13125.451   -1600.8153     3048.625 
   82000          300    2158.8541   -1601.2018     3048.625 
   83000          300    1295.6869    -1601.791     3048.625 
   84000          300     9291.803   -1601.9917     3048.625 
   85000          300    3832.6038   -1601.7163     3048.625 
   86000          300    6701.8758   -1601.3162     3048.625 
   87000          300    11306.091   -1601.5253     3048.625 
   88000          300    3483.6552   -1602.0441     3048.625 
   89000          300    3936.3776    -1602.023     3048.625 
   90000          300     10048.41   -1601.6719     3048.625 
   91000     300.0073    7993.6455   -1601.3322     3048.625 
   92000          300    11469.851   -1599.3029     3048.625 
   93000          300    11723.117   -1599.8556     3048.625 
   94000          300    10735.276   -1601.0016     3048.625 
   95000          300    4923.9115   -1601.5768     3048.625 
   96000          300    12614.907    -1600.518     3048.625 
   97000          300    7520.9586   -1601.6177     3048.625 
   98000          300     17341.13   -1600.9665     3048.625 
   99000          300    8653.2009    -1601.294     3048.625 
  100000          300    14430.775   -1602.5301     3048.625 
Loop time of 1097.03 on 1 procs for 100000 steps with 240 atoms

Pair  time (%) = 1088.23 (99.198)
Bond  time (%) = 0.0275826 (0.0025143)
Neigh time (%) = 4.4021 (0.401273)
Comm  time (%) = 2.9215 (0.266309)
Outpt time (%) = 0.00300241 (0.000273684)
Other time (%) = 1.44384 (0.131613)

Nlocal:    240 ave 240 max 240 min
Histogram: 1 0 0 0 0 0 0 0 0 0
Nghost:    5802 ave 5802 max 5802 min
Histogram: 1 0 0 0 0 0 0 0 0 0
Neighs:    87930 ave 87930 max 87930 min
Histogram: 1 0 0 0 0 0 0 0 0 0
FullNghs:  175860 ave 175860 max 175860 min
Histogram: 1 0 0 0 0 0 0 0 0 0

Total # of neighbors = 175860
Ave neighs/atom = 732.75
Ave special neighs/atom = 0
Neighbor list builds = 624
Dangerous builds = 0
#	run             	1000
	unfix 			1
	unfix 			2
#--------------------------------------------------------------------------
#nve
#--------------------------------------------------------------------------
	fix 			1 all nve
	timestep		${dt}
	timestep		0.0010000000000000000208
	thermo_style  		custom step temp press etotal vol
	thermo			1000
	run             	100000
Memory usage per processor = 5.40665 Mbytes
Step Temp Press TotEng Volume 
  100000          300    14430.775   -1602.5301     3048.625 
  101000    298.43415    2910.2449   -1602.5351     3048.625 
  102000    290.63812    8362.7301   -1602.5355     3048.625 
  103000    297.26856     6709.726   -1602.5329     3048.625 
  104000    274.59421    10855.307   -1602.5292     3048.625 
  105000    276.04251    4818.5678   -1602.5299     3048.625 
  106000     283.1559    4141.9034   -1602.5344     3048.625 
  107000    289.69112    11203.869   -1602.5321     3048.625 
  108000    280.26336    7728.6128   -1602.5303     3048.625 
  109000    268.96304    9774.7925   -1602.5306     3048.625 
  110000    283.13465    6621.7247   -1602.5284     3048.625 
  111000    271.36904    4014.6792   -1602.5335     3048.625 
  112000    294.07131    10545.012   -1602.5367     3048.625 
  113000     258.2457    9212.5906   -1602.5317     3048.625 
  114000    264.31918    10145.697   -1602.5263     3048.625 
  115000    271.17844     2986.133   -1602.5264     3048.625 
  116000    271.83892    15270.888    -1602.528     3048.625 
  117000    255.10153    10324.673   -1602.5339     3048.625 
  118000    288.29321    10159.927   -1602.5346     3048.625 
  119000     272.0422    10693.238   -1602.5337     3048.625 
  120000    290.40774    8755.2891   -1602.5326     3048.625 
  121000    273.93028    8340.1639   -1602.5293     3048.625 
  122000    257.43742    12361.578   -1602.5338     3048.625 
  123000    268.44227    5550.5146   -1602.5332     3048.625 
  124000    263.53094    8689.3979   -1602.5289     3048.625 
  125000    300.86481    10845.889   -1602.5398     3048.625 
  126000    292.07444    2988.6577   -1602.5329     3048.625 
  127000    287.39684    9875.8708   -1602.5361     3048.625 
  128000    270.53251    12377.206   -1602.5293     3048.625 
  129000    272.16592    4852.9988   -1602.5357     3048.625 
  130000    268.07101    9515.5332   -1602.5291     3048.625 
  131000    259.61615    10184.966    -1602.536     3048.625 
  132000    235.75029    16643.646   -1602.5314     3048.625 
  133000    253.94877    12013.737   -1602.5341     3048.625 
  134000    279.99725    8041.5718   -1602.5357     3048.625 
  135000    247.42027     16548.89   -1602.5327     3048.625 
  136000    226.31192    11729.453   -1602.5317     3048.625 
  137000    248.59319    17467.003   -1602.5331     3048.625 
  138000    232.89544    14555.881   -1602.5345     3048.625 
  139000    223.32232    20893.533   -1602.5313     3048.625 
  140000    258.94445    5923.1993   -1602.5347     3048.625 
  141000    239.80465    18189.482   -1602.5355     3048.625 
  142000    269.84221    8881.8539   -1602.5283     3048.625 
  143000    251.14159    15569.551    -1602.536     3048.625 
  144000    260.11257    16434.715   -1602.5396     3048.625 
  145000    272.16454    9458.8276   -1602.5286     3048.625 
  146000    277.86866     7790.693   -1602.5359     3048.625 
  147000    239.78286    18083.501   -1602.5376     3048.625 
  148000    262.10781    9090.9398   -1602.5361     3048.625 
  149000    286.07682    3715.7488   -1602.5337     3048.625 
  150000    282.90769    9005.8868   -1602.5389     3048.625 
  151000    237.46891    15623.617   -1602.5355     3048.625 
  152000    216.50217    22038.929   -1602.5332     3048.625 
  153000    240.08392    12573.229   -1602.5357     3048.625 
  154000    283.90189    4170.2692    -1602.531     3048.625 
  155000    269.37214    13054.247   -1602.5346     3048.625 
  156000    258.51237    13160.483   -1602.5418     3048.625 
  157000    253.18409    8230.6068   -1602.5304     3048.625 
  158000    255.26256    13454.495   -1602.5353     3048.625 
  159000      270.072    8437.3318   -1602.5327     3048.625 
  160000    267.34736    9156.8539   -1602.5396     3048.625 
  161000    271.12003    9062.2602   -1602.5311     3048.625 
  162000    278.60728    6481.0459   -1602.5343     3048.625 
  163000    246.10697    12360.921   -1602.5379     3048.625 
  164000    289.25391     3541.773   -1602.5338     3048.625 
  165000    281.70578    7781.0359   -1602.5365     3048.625 
  166000    257.88579    7426.8774   -1602.5377     3048.625 
  167000    242.29149     19700.28   -1602.5334     3048.625 
  168000    250.49906    11075.531   -1602.5341     3048.625 
  169000    242.46639    13298.764    -1602.533     3048.625 
  170000    266.30358    14442.909   -1602.5349     3048.625 
  171000    262.66783    7898.2081   -1602.5388     3048.625 
  172000    240.65703    9665.2145   -1602.5375     3048.625 
  173000     275.0578    4907.2378   -1602.5328     3048.625 
  174000    282.25597    9866.8848   -1602.5374     3048.625 
  175000    243.09763    12946.079   -1602.5367     3048.625 
  176000    254.40607    12705.409   -1602.5378     3048.625 
  177000    251.59142    10721.159   -1602.5377     3048.625 
  178000    249.00462    16700.525   -1602.5401     3048.625 
  179000    254.21755    14811.516   -1602.5324     3048.625 
  180000     241.9648    17548.495   -1602.5351     3048.625 
  181000    245.01677     8478.339   -1602.5359     3048.625 
  182000     261.5733     10388.84   -1602.5363     3048.625 
  183000    244.36152    12485.671    -1602.537     3048.625 
  184000     244.6107    12216.305    -1602.535     3048.625 
  185000     249.5973    16988.286    -1602.535     3048.625 
  186000    270.73206    5864.8773   -1602.5325     3048.625 
  187000    266.56419    9719.9775   -1602.5336     3048.625 
  188000    274.12691    12729.897    -1602.539     3048.625 
  189000    267.33502    5621.0912   -1602.5312     3048.625 
  190000    252.24139    8205.7093   -1602.5317     3048.625 
  191000    260.25619    10696.748   -1602.5329     3048.625 
  192000    275.04072    8597.3122   -1602.5396     3048.625 
  193000     276.0647    7947.5252    -1602.546     3048.625 
  194000    268.37475    1217.1559   -1602.5311     3048.625 
  195000    238.42796    12284.648   -1602.5344     3048.625 
  196000    269.79815    5131.6533   -1602.5351     3048.625 
  197000    255.44687    14158.324   -1602.5356     3048.625 
  198000    261.75601    6575.9299   -1602.5332     3048.625 
  199000    268.36322    9090.9033    -1602.528     3048.625 
  200000    254.77524    2717.7338    -1602.532     3048.625 
Loop time of 1097.28 on 1 procs for 100000 steps with 240 atoms

Pair  time (%) = 1086.58 (99.0246)
Bond  time (%) = 0.0215945 (0.001968)
Neigh time (%) = 6.48644 (0.591137)
Comm  time (%) = 2.92234 (0.266326)
Outpt time (%) = 0.00307512 (0.000280249)
Other time (%) = 1.26889 (0.11564)

Nlocal:    240 ave 240 max 240 min
Histogram: 1 0 0 0 0 0 0 0 0 0
Nghost:    5760 ave 5760 max 5760 min
Histogram: 1 0 0 0 0 0 0 0 0 0
Neighs:    87948 ave 87948 max 87948 min
Histogram: 1 0 0 0 0 0 0 0 0 0
FullNghs:  175896 ave 175896 max 175896 min
Histogram: 1 0 0 0 0 0 0 0 0 0

Total # of neighbors = 175896
Ave neighs/atom = 732.9
Ave special neighs/atom = 0
Neighbor list builds = 920
Dangerous builds = 0
#	run             	10000
	unfix 			1
#--------------------------------------------------------------------------
#kappa
#--------------------------------------------------------------------------
log 	log_kappa_${iseed}.lammps
log 	log_kappa_6.lammps
