
#--------------------------------------------------------------------------
#nve rescale
#--------------------------------------------------------------------------
	velocity 		all create ${T_run} ${seed} rot yes dist gaussian
	velocity 		all create 300 ${seed} rot yes dist gaussian
	velocity 		all create 300 22222 rot yes dist gaussian

	fix 			1 all nve
	fix 			2 all temp/rescale 1 ${T_run} ${T_run} 0.01 1.0
	fix 			2 all temp/rescale 1 300 ${T_run} 0.01 1.0
	fix 			2 all temp/rescale 1 300 300 0.01 1.0
	timestep		${dt}
	timestep		0.0010000000000000000208
	thermo_style  		custom step temp press etotal vol
	thermo			1000
	run             	100000
Memory usage per processor = 4.94889 Mbytes
Step Temp Press TotEng Volume 
       0          300    170606.47   -1574.3912     3048.625 
    1000          300   -12441.168   -1594.4156     3048.625 
    2000          300   -7961.3327   -1597.0749     3048.625 
    3000          300    15569.084   -1597.5605     3048.625 
    4000          300    26993.886   -1597.5262     3048.625 
    5000          300      17453.6   -1598.3187     3048.625 
    6000          300    7107.2898   -1597.6244     3048.625 
    7000          300   -9510.0923   -1598.0101     3048.625 
    8000          300   -10369.764    -1597.613     3048.625 
    9000          300   -7876.2909   -1598.0644     3048.625 
   10000          300    11891.537   -1597.7809     3048.625 
   11000          300    19434.676   -1597.1366     3048.625 
   12000          300    17327.513    -1597.469     3048.625 
   13000          300    1995.2552   -1598.1483     3048.625 
   14000          300   -7475.6313   -1597.3164     3048.625 
   15000          300    3554.5521   -1598.3523     3048.625 
   16000          300    5580.8235   -1597.9377     3048.625 
   17000          300     2543.637   -1597.5512     3048.625 
   18000          300    4818.0753   -1597.9002     3048.625 
   19000          300     4187.032    -1597.252     3048.625 
   20000          300    5186.5749   -1597.2756     3048.625 
   21000          300    8987.9297    -1597.547     3048.625 
   22000          300    1897.6616   -1598.2631     3048.625 
   23000          300     4301.537   -1597.7414     3048.625 
   24000          300    6320.4567   -1598.1064     3048.625 
   25000          300    2920.2871   -1597.4038     3048.625 
   26000          300    5216.4586   -1598.1436     3048.625 
   27000          300    9660.9547   -1597.9823     3048.625 
   28000          300    13408.265   -1598.4067     3048.625 
   29000          300    4163.9039   -1597.6183     3048.625 
   30000          300    4180.9168   -1597.0556     3048.625 
   31000          300      7041.72   -1597.7975     3048.625 
   32000          300    8498.9361   -1597.6124     3048.625 
   33000          300    7104.3021   -1598.3652     3048.625 
   34000          300    9245.9663   -1598.5938     3048.625 
   35000          300    822.30502   -1597.3789     3048.625 
   36000          300   -1661.7292    -1598.225     3048.625 
   37000          300    6878.6902   -1598.5977     3048.625 
   38000          300    4790.1284   -1598.1511     3048.625 
   39000          300    6347.2605   -1598.9005     3048.625 
   40000          300    3670.8869   -1599.0276     3048.625 
   41000          300    11069.557   -1597.9861     3048.625 
   42000          300    13473.724    -1597.695     3048.625 
   43000          300    4334.7614   -1598.3326     3048.625 
   44000          300   -1875.0901   -1598.1044     3048.625 
   45000          300    5618.5719   -1599.5627     3048.625 
   46000          300    3942.7882   -1599.3268     3048.625 
   47000          300    7613.8265   -1599.0414     3048.625 
   48000          300    6613.8044   -1598.7162     3048.625 
   49000          300    2066.7258   -1599.1874     3048.625 
   50000          300     10846.54   -1598.1745     3048.625 
   51000          300    14031.361   -1599.2834     3048.625 
   52000          300   -2860.2213   -1599.2202     3048.625 
   53000          300    773.98169   -1599.5294     3048.625 
   54000          300    16636.711   -1598.8187     3048.625 
   55000          300     7242.545   -1598.7317     3048.625 
   56000          300    3156.6365   -1598.4212     3048.625 
   57000          300      6088.39   -1599.2271     3048.625 
   58000          300    7951.2048   -1599.5111     3048.625 
   59000          300    3381.5246   -1600.1327     3048.625 
   60000          300    8767.4813   -1600.2739     3048.625 
   61000          300    1358.1126   -1599.8952     3048.625 
   62000          300    3738.1185   -1599.1708     3048.625 
   63000          300    10290.654   -1599.3888     3048.625 
   64000          300    147.59671   -1600.2942     3048.625 
   65000          300    9023.8202   -1600.2199     3048.625 
   66000          300    14489.342    -1599.727     3048.625 
   67000          300    7508.5745   -1600.0558     3048.625 
   68000          300    8585.2049   -1600.3061     3048.625 
   69000          300    10932.506   -1600.0802     3048.625 
   70000          300    14468.486   -1598.8293     3048.625 
   71000          300    4220.4803   -1600.7058     3048.625 
   72000          300    10809.294   -1601.0957     3048.625 
   73000          300   -1300.0301   -1600.6906     3048.625 
   74000          300    8445.2713   -1600.4544     3048.625 
   75000          300    9890.8373   -1599.8516     3048.625 
   76000          300    9376.8532   -1600.1986     3048.625 
   77000          300    12078.818   -1600.2193     3048.625 
   78000          300    3780.0114    -1600.677     3048.625 
   79000          300    8450.7117   -1600.8231     3048.625 
   80000          300    18958.814   -1599.0278     3048.625 
   81000          300    15698.273   -1599.1205     3048.625 
   82000          300    13828.649   -1600.0498     3048.625 
   83000          300    13290.602   -1599.5072     3048.625 
   84000          300    19907.777   -1598.4629     3048.625 
   85000          300    14425.487   -1599.7786     3048.625 
   86000          300    8081.2577   -1600.7064     3048.625 
   87000          300    24117.444   -1599.7901     3048.625 
   88000          300    11494.318   -1598.4325     3048.625 
   89000          300    15540.971   -1600.4071     3048.625 
   90000          300    10870.398   -1601.4435     3048.625 
   91000          300    6789.2719   -1601.2444     3048.625 
   92000          300    8904.7665     -1601.14     3048.625 
   93000          300    17220.168   -1599.7463     3048.625 
   94000          300    11291.833   -1601.4501     3048.625 
   95000          300    15556.161   -1600.5283     3048.625 
   96000          300    23759.152   -1599.3327     3048.625 
   97000          300    17911.861   -1600.2265     3048.625 
   98000          300    4408.1598   -1601.7087     3048.625 
   99000          300    10350.923   -1602.2125     3048.625 
  100000          300    6655.6738   -1602.1522     3048.625 
Loop time of 1850.11 on 1 procs for 100000 steps with 240 atoms

Pair  time (%) = 1835.74 (99.2233)
Bond  time (%) = 0.050606 (0.0027353)
Neigh time (%) = 7.20677 (0.389533)
Comm  time (%) = 4.73679 (0.256028)
Outpt time (%) = 0.00429988 (0.000232413)
Other time (%) = 2.37178 (0.128197)

Nlocal:    240 ave 240 max 240 min
Histogram: 1 0 0 0 0 0 0 0 0 0
Nghost:    5796 ave 5796 max 5796 min
Histogram: 1 0 0 0 0 0 0 0 0 0
Neighs:    87910 ave 87910 max 87910 min
Histogram: 1 0 0 0 0 0 0 0 0 0
FullNghs:  175820 ave 175820 max 175820 min
Histogram: 1 0 0 0 0 0 0 0 0 0

Total # of neighbors = 175820
Ave neighs/atom = 732.583
Ave special neighs/atom = 0
Neighbor list builds = 624
Dangerous builds = 0
#	run             	1000
	unfix 			1
	unfix 			2
#--------------------------------------------------------------------------
#nve
#--------------------------------------------------------------------------
	fix 			1 all nve
	timestep		${dt}
	timestep		0.0010000000000000000208
	thermo_style  		custom step temp press etotal vol
	thermo			1000
	run             	100000
Memory usage per processor = 5.40665 Mbytes
Step Temp Press TotEng Volume 
  100000          300    6655.6738   -1602.1522     3048.625 
  101000    232.60655    23038.626   -1602.1567     3048.625 
  102000    263.95032    10663.347   -1602.1553     3048.625 
  103000    263.34041    9110.5118   -1602.1551     3048.625 
  104000    235.80876    18522.611    -1602.157     3048.625 
  105000    244.28879    17895.145   -1602.1562     3048.625 
  106000    265.93376    13874.742   -1602.1517     3048.625 
  107000    273.52753    12769.581   -1602.1561     3048.625 
  108000    277.65099    11266.665   -1602.1523     3048.625 
  109000    309.00469    7153.0983   -1602.1564     3048.625 
  110000    281.96283    11135.254   -1602.1551     3048.625 
  111000    236.33557    16131.947   -1602.1539     3048.625 
  112000    262.47131    12099.553   -1602.1499     3048.625 
  113000    269.35917    14218.774   -1602.1512     3048.625 
  114000    259.83057    14800.212     -1602.16     3048.625 
  115000     289.9745    10207.044   -1602.1637     3048.625 
  116000    292.41496    4358.5574   -1602.1551     3048.625 
  117000    271.96033    15911.781   -1602.1537     3048.625 
  118000    275.81936    11086.406   -1602.1576     3048.625 
  119000    269.53462    11740.842   -1602.1523     3048.625 
  120000    271.10083    11312.145   -1602.1571     3048.625 
  121000    280.52143    11995.959   -1602.1569     3048.625 
  122000    257.74382    14790.329   -1602.1549     3048.625 
  123000    278.80468    4444.9178   -1602.1566     3048.625 
  124000    285.61377    11686.346    -1602.156     3048.625 
  125000    302.65499    3653.4393   -1602.1598     3048.625 
  126000    285.43787    10237.836   -1602.1604     3048.625 
  127000    273.13384    9721.4005    -1602.152     3048.625 
  128000    269.51597      7251.09   -1602.1515     3048.625 
  129000    271.08304    14517.926   -1602.1535     3048.625 
  130000    274.05834    9898.5313   -1602.1555     3048.625 
  131000    294.82124     3700.397    -1602.151     3048.625 
  132000    262.17626    13489.138   -1602.1599     3048.625 
  133000     264.0516    12705.196    -1602.156     3048.625 
  134000    255.05514    11822.572   -1602.1561     3048.625 
  135000    247.38334    12883.694    -1602.154     3048.625 
  136000    271.65266    10621.421   -1602.1514     3048.625 
  137000    262.08707    12012.891   -1602.1566     3048.625 
  138000    262.05893    16983.016   -1602.1522     3048.625 
  139000    252.95887    16636.826   -1602.1587     3048.625 
  140000     233.1929    23345.174   -1602.1571     3048.625 
  141000    274.60546    10398.253   -1602.1554     3048.625 
  142000    277.63146    12073.869    -1602.157     3048.625 
  143000    277.84054    13297.795   -1602.1588     3048.625 
  144000    229.64032    15913.831   -1602.1569     3048.625 
  145000     288.8142    7304.2217    -1602.154     3048.625 
  146000    239.26302    11915.417   -1602.1601     3048.625 
  147000     255.6917    13997.189   -1602.1581     3048.625 
  148000    269.14197    7266.9139   -1602.1563     3048.625 
  149000      266.542    11267.623   -1602.1556     3048.625 
  150000    268.84537    12989.924   -1602.1572     3048.625 
  151000    254.00911    11731.674   -1602.1603     3048.625 
  152000    262.06874    15556.487    -1602.156     3048.625 
  153000    258.95015    8810.3514   -1602.1547     3048.625 
  154000    278.90084    13706.648   -1602.1592     3048.625 
  155000    273.22967    8126.4432   -1602.1574     3048.625 
  156000    292.48961    7545.9767   -1602.1589     3048.625 
  157000    283.62682    4898.2612   -1602.1578     3048.625 
  158000    265.63118    12853.609   -1602.1531     3048.625 
  159000    265.47374    13173.303   -1602.1636     3048.625 
  160000     283.9416    8691.9183   -1602.1587     3048.625 
  161000    294.25172    7369.0675   -1602.1601     3048.625 
  162000     262.2136    11269.761   -1602.1622     3048.625 
  163000    275.46164    10955.024   -1602.1544     3048.625 
  164000     295.9609    6701.4537   -1602.1556     3048.625 
  165000     243.9479    16704.395   -1602.1612     3048.625 
  166000    285.58659    9377.0888   -1602.1538     3048.625 
  167000    272.34163    5990.6084   -1602.1527     3048.625 
  168000    289.05327    5754.4556   -1602.1556     3048.625 
  169000    285.41803    15735.499    -1602.161     3048.625 
  170000    299.06567    3909.6102    -1602.166     3048.625 
  171000    286.62428    8089.1576   -1602.1565     3048.625 
  172000    240.86038    15949.127    -1602.153     3048.625 
  173000    266.87216    9542.7285   -1602.1583     3048.625 
  174000    260.74498    10850.902   -1602.1605     3048.625 
  175000    246.44786     19987.46   -1602.1545     3048.625 
  176000    265.94514    5427.3342   -1602.1557     3048.625 
  177000    291.46696    10780.888    -1602.163     3048.625 
  178000    276.77263    7820.9851   -1602.1601     3048.625 
  179000    280.84378    6363.5714   -1602.1602     3048.625 
  180000    286.07138    10099.739   -1602.1595     3048.625 
  181000     274.2824    6567.0378   -1602.1556     3048.625 
  182000    262.03202    16311.568   -1602.1614     3048.625 
  183000    266.81723    8096.3636   -1602.1542     3048.625 
  184000    295.60143    7258.4561   -1602.1633     3048.625 
  185000    289.11872    899.55002    -1602.159     3048.625 
  186000    272.61044    15788.296   -1602.1601     3048.625 
  187000    273.58244    7418.3676   -1602.1588     3048.625 
  188000    294.01693    983.03588   -1602.1615     3048.625 
  189000     275.0662     13138.13    -1602.155     3048.625 
  190000    285.27539    1727.7846   -1602.1559     3048.625 
  191000    290.70408    8838.1606   -1602.1588     3048.625 
  192000    272.06593    14227.053    -1602.156     3048.625 
  193000     278.0144    2336.8501   -1602.1526     3048.625 
  194000    277.36287    7876.9939   -1602.1565     3048.625 
  195000    272.19963    8438.4377   -1602.1586     3048.625 
  196000    285.29438    3261.8491   -1602.1546     3048.625 
  197000    280.89204    8910.7899   -1602.1575     3048.625 
  198000    268.61954    7292.5297   -1602.1536     3048.625 
  199000    281.06104    6842.2874   -1602.1552     3048.625 
  200000    274.07877    10177.517   -1602.1575     3048.625 
Loop time of 1735.39 on 1 procs for 100000 steps with 240 atoms

Pair  time (%) = 1717.76 (98.9842)
Bond  time (%) = 0.0525663 (0.00302909)
Neigh time (%) = 11.0169 (0.634842)
Comm  time (%) = 4.59076 (0.264538)
Outpt time (%) = 0.00477433 (0.000275117)
Other time (%) = 1.96222 (0.113071)

Nlocal:    240 ave 240 max 240 min
Histogram: 1 0 0 0 0 0 0 0 0 0
Nghost:    5829 ave 5829 max 5829 min
Histogram: 1 0 0 0 0 0 0 0 0 0
Neighs:    87853 ave 87853 max 87853 min
Histogram: 1 0 0 0 0 0 0 0 0 0
FullNghs:  175706 ave 175706 max 175706 min
Histogram: 1 0 0 0 0 0 0 0 0 0

Total # of neighbors = 175706
Ave neighs/atom = 732.108
Ave special neighs/atom = 0
Neighbor list builds = 992
Dangerous builds = 0
#	run             	10000
	unfix 			1
#--------------------------------------------------------------------------
#kappa
#--------------------------------------------------------------------------
log 	log_kappa_${iseed}.lammps
log 	log_kappa_2.lammps
