
#--------------------------------------------------------------------------
#nve rescale
#--------------------------------------------------------------------------
	velocity 		all create ${T_run} ${seed} rot yes dist gaussian
	velocity 		all create 300 ${seed} rot yes dist gaussian
	velocity 		all create 300 55555 rot yes dist gaussian

	fix 			1 all nve
	fix 			2 all temp/rescale 1 ${T_run} ${T_run} 0.01 1.0
	fix 			2 all temp/rescale 1 300 ${T_run} 0.01 1.0
	fix 			2 all temp/rescale 1 300 300 0.01 1.0
	timestep		${dt}
	timestep		0.0010000000000000000208
	thermo_style  		custom step temp press etotal vol
	thermo			1000
	run             	100000
Memory usage per processor = 4.94889 Mbytes
Step Temp Press TotEng Volume 
       0          300    170606.47   -1574.3912     3048.625 
    1000          300    -18398.92   -1596.4486     3048.625 
    2000          300    -9006.693   -1597.8365     3048.625 
    3000          300    12669.895   -1598.4094     3048.625 
    4000          300    42191.789   -1598.7792     3048.625 
    5000          300    27258.998   -1597.8247     3048.625 
    6000          300    11553.067   -1598.0873     3048.625 
    7000          300   -18880.851   -1597.5873     3048.625 
    8000          300   -30226.392   -1597.8441     3048.625 
    9000          300   -3398.0463   -1597.9379     3048.625 
   10000          300    6186.7617   -1597.9651     3048.625 
   11000          300    31042.638   -1597.9088     3048.625 
   12000          300    13543.265   -1597.6905     3048.625 
   13000          300   -11724.884   -1598.3422     3048.625 
   14000          300   -7385.9603    -1597.728     3048.625 
   15000          300   -11682.117   -1597.5264     3048.625 
   16000          300   -1816.9141   -1598.1838     3048.625 
   17000          300     18084.95   -1598.6963     3048.625 
   18000          300    25357.634   -1597.8123     3048.625 
   19000          300    11408.367   -1597.6947     3048.625 
   20000          300   -11539.812   -1597.8217     3048.625 
   21000          300   -2756.6924   -1597.8031     3048.625 
   22000          300     7846.655   -1598.1492     3048.625 
   23000          300    3749.1125   -1598.0613     3048.625 
   24000          300    5601.2379   -1598.2817     3048.625 
   25000          300   -1110.8212   -1597.2239     3048.625 
   26000          300   -308.80209   -1597.8833     3048.625 
   27000          300    6225.8183   -1598.4135     3048.625 
   28000          300    14500.451   -1597.6654     3048.625 
   29000          300    -1528.872   -1597.8247     3048.625 
   30000          300   -81.502812   -1598.4926     3048.625 
   31000          300    11384.543   -1598.3098     3048.625 
   32000          300    2889.7606   -1598.1226     3048.625 
   33000          300    307.93527   -1598.1548     3048.625 
   34000          300    9355.1378   -1597.7987     3048.625 
   35000          300    14486.732   -1598.4042     3048.625 
   36000          300    1918.8914   -1598.5481     3048.625 
   37000          300    1351.1093   -1598.4659     3048.625 
   38000          300    9493.2698   -1597.2582     3048.625 
   39000          300    8288.7897   -1597.8186     3048.625 
   40000          300    8365.2174   -1597.9484     3048.625 
   41000          300    3282.0007   -1597.9828     3048.625 
   42000          300    3749.8223   -1596.4094     3048.625 
   43000          300    16225.309   -1597.4501     3048.625 
   44000          300    15076.386   -1598.2169     3048.625 
   45000          300   -2031.7298   -1598.8495     3048.625 
   46000          300    9508.4462   -1598.7248     3048.625 
   47000          300    10520.846   -1598.3121     3048.625 
   48000          300    2687.2707   -1598.7052     3048.625 
   49000          300    8797.3528   -1598.9112     3048.625 
   50000          300    8799.5541   -1598.5697     3048.625 
   51000          300    2595.0656   -1598.8557     3048.625 
   52000          300    11699.451   -1599.5329     3048.625 
   53000          300    10834.316   -1598.5581     3048.625 
   54000          300    8322.1416     -1598.82     3048.625 
   55000          300    14316.995   -1599.0884     3048.625 
   56000          300     7856.377   -1598.6695     3048.625 
   57000          300    14473.439   -1598.5042     3048.625 
   58000          300    18026.841   -1597.6208     3048.625 
   59000          300    16768.705   -1597.0787     3048.625 
   60000          300    12901.872   -1597.4879     3048.625 
   61000          300    15771.195   -1599.7817     3048.625 
   62000          300    1980.3327   -1599.7247     3048.625 
   63000          300    322.64972   -1600.7335     3048.625 
   64000          300    3107.9254   -1600.9002     3048.625 
   65000          300     9711.148   -1600.8061     3048.625 
   66000          300     6957.101   -1599.5884     3048.625 
   67000          300    7574.8729   -1600.5769     3048.625 
   68000          300    14601.542   -1600.3901     3048.625 
   69000          300    5228.6854   -1600.7262     3048.625 
   70000          300    13529.414   -1598.9386     3048.625 
   71000          300    7420.9931   -1599.8754     3048.625 
   72000          300    13357.263   -1600.0584     3048.625 
   73000          300    12451.756   -1598.2887     3048.625 
   74000          300    14485.132   -1600.5219     3048.625 
   75000          300    3742.8215   -1600.8884     3048.625 
   76000          300    13115.467   -1600.4126     3048.625 
   77000          300    8970.3879   -1600.1695     3048.625 
   78000          300     7168.458   -1600.8682     3048.625 
   79000          300    15854.389   -1600.1594     3048.625 
   80000          300     4124.592   -1600.9392     3048.625 
   81000          300    10677.984   -1600.9681     3048.625 
   82000          300    10690.971   -1600.8299     3048.625 
   83000          300    3881.2647   -1601.7067     3048.625 
   84000          300    7993.7982   -1601.4656     3048.625 
   85000          300    20273.411   -1599.1796     3048.625 
   86000          300    5676.2705   -1600.8502     3048.625 
   87000          300    15298.776    -1599.797     3048.625 
   88000          300    9110.0208   -1601.4502     3048.625 
   89000          300    14407.057   -1601.0429     3048.625 
   90000          300    18404.975   -1600.4848     3048.625 
   91000          300    10664.957   -1601.3813     3048.625 
   92000          300    19157.694   -1599.0874     3048.625 
   93000          300    15043.031   -1600.9527     3048.625 
   94000          300    25208.712    -1599.188     3048.625 
   95000          300    10749.193   -1600.9563     3048.625 
   96000          300    9379.6161   -1601.0091     3048.625 
   97000          300     15363.22   -1600.7939     3048.625 
   98000          300    7468.9471    -1602.079     3048.625 
   99000          300    18893.977   -1599.7576     3048.625 
  100000          300    11077.664   -1601.7464     3048.625 
Loop time of 1077.03 on 1 procs for 100000 steps with 240 atoms

Pair  time (%) = 1068.1 (99.1706)
Bond  time (%) = 0.0257866 (0.00239424)
Neigh time (%) = 4.5384 (0.421381)
Comm  time (%) = 2.90667 (0.269878)
Outpt time (%) = 0.00296187 (0.000275004)
Other time (%) = 1.45894 (0.135459)

Nlocal:    240 ave 240 max 240 min
Histogram: 1 0 0 0 0 0 0 0 0 0
Nghost:    5835 ave 5835 max 5835 min
Histogram: 1 0 0 0 0 0 0 0 0 0
Neighs:    87910 ave 87910 max 87910 min
Histogram: 1 0 0 0 0 0 0 0 0 0
FullNghs:  175820 ave 175820 max 175820 min
Histogram: 1 0 0 0 0 0 0 0 0 0

Total # of neighbors = 175820
Ave neighs/atom = 732.583
Ave special neighs/atom = 0
Neighbor list builds = 645
Dangerous builds = 0
#	run             	1000
	unfix 			1
	unfix 			2
#--------------------------------------------------------------------------
#nve
#--------------------------------------------------------------------------
	fix 			1 all nve
	timestep		${dt}
	timestep		0.0010000000000000000208
	thermo_style  		custom step temp press etotal vol
	thermo			1000
	run             	100000
Memory usage per processor = 5.40665 Mbytes
Step Temp Press TotEng Volume 
  100000          300    11077.664   -1601.7464     3048.625 
  101000    260.51966    11797.691   -1601.7521     3048.625 
  102000    292.17548    15866.516   -1601.7501     3048.625 
  103000    321.62353    7311.3936   -1601.7554     3048.625 
  104000    302.68237     16819.64   -1601.7494     3048.625 
  105000    292.05563    15012.788   -1601.7484     3048.625 
  106000    295.20312    6889.8818   -1601.7494     3048.625 
  107000    298.02781    13720.658   -1601.7529     3048.625 
  108000    306.97059    10936.279    -1601.752     3048.625 
  109000    299.35129    9965.8813   -1601.7527     3048.625 
  110000    298.52617    13909.367   -1601.7503     3048.625 
  111000    254.98279    15437.808   -1601.7476     3048.625 
  112000    297.80509    13488.526   -1601.7518     3048.625 
  113000    291.70022    10030.455   -1601.7522     3048.625 
  114000    326.67731    9542.9871   -1601.7488     3048.625 
  115000    261.20212    16970.314   -1601.7501     3048.625 
  116000     317.1152    3836.6444   -1601.7478     3048.625 
  117000    278.82161    12552.299   -1601.7472     3048.625 
  118000     312.3549    11319.651   -1601.7507     3048.625 
  119000    280.32852    10616.922   -1601.7498     3048.625 
  120000    312.95129     5482.202   -1601.7529     3048.625 
  121000    321.14302    7013.7164    -1601.752     3048.625 
  122000    278.92064     11048.61   -1601.7427     3048.625 
  123000    284.42229    10454.355   -1601.7487     3048.625 
  124000    283.41056    13772.842   -1601.7513     3048.625 
  125000    290.73971    2845.7132   -1601.7502     3048.625 
  126000    303.13285    18742.906   -1601.7555     3048.625 
  127000    305.58367    6732.7004   -1601.7566     3048.625 
  128000    293.40159    7059.3841   -1601.7531     3048.625 
  129000    295.86987    10945.204   -1601.7473     3048.625 
  130000    295.86302    8348.4273   -1601.7481     3048.625 
  131000    322.44428    2418.0651   -1601.7547     3048.625 
  132000      321.764    12176.862     -1601.75     3048.625 
  133000    298.40721    3851.1115    -1601.752     3048.625 
  134000    279.24699    13327.744   -1601.7495     3048.625 
  135000    291.29739    11615.663   -1601.7494     3048.625 
  136000    314.49736    7643.8066   -1601.7536     3048.625 
  137000     304.0089    6484.6716   -1601.7467     3048.625 
  138000    290.20648    8686.6028   -1601.7465     3048.625 
  139000    305.16775    9085.8624   -1601.7544     3048.625 
  140000    288.28435    7183.8588   -1601.7528     3048.625 
  141000     294.3582    17105.301    -1601.752     3048.625 
  142000    290.08407    9122.7727   -1601.7512     3048.625 
  143000    292.95165    11002.668   -1601.7514     3048.625 
  144000    309.11042    6591.3906   -1601.7514     3048.625 
  145000    303.28241    9310.3447   -1601.7507     3048.625 
  146000    283.29044    12221.651   -1601.7502     3048.625 
  147000    272.88095    9291.4474   -1601.7469     3048.625 
  148000    286.73599    12242.765   -1601.7517     3048.625 
  149000    287.36006    10934.269   -1601.7488     3048.625 
  150000     276.7168     13130.43   -1601.7512     3048.625 
  151000    271.71868    12678.256   -1601.7544     3048.625 
  152000    297.01022    13896.852   -1601.7499     3048.625 
  153000    280.26208     8211.895    -1601.749     3048.625 
  154000    288.97661    13361.895   -1601.7472     3048.625 
  155000    272.25891    13508.535   -1601.7525     3048.625 
  156000    292.65041    10517.321    -1601.754     3048.625 
  157000    295.07942    9864.3291   -1601.7513     3048.625 
  158000    296.01942    11734.619   -1601.7554     3048.625 
  159000    305.76781    5388.0378   -1601.7484     3048.625 
  160000    301.76481    11478.776   -1601.7468     3048.625 
  161000    295.65368    4643.0258   -1601.7516     3048.625 
  162000     304.0479    12251.552   -1601.7557     3048.625 
  163000    262.28798    17441.204   -1601.7492     3048.625 
  164000    305.67577    6584.3371   -1601.7519     3048.625 
  165000    308.64599    7860.3334   -1601.7518     3048.625 
  166000     253.0999    19485.105   -1601.7532     3048.625 
  167000    288.79986    9844.4282   -1601.7512     3048.625 
  168000    263.94617    14092.298   -1601.7515     3048.625 
  169000    280.00968    15651.194   -1601.7577     3048.625 
  170000    259.39985    17921.788   -1601.7516     3048.625 
  171000    285.68148    14586.783    -1601.753     3048.625 
  172000    305.84794    10731.941   -1601.7531     3048.625 
  173000    270.05927    13851.107   -1601.7524     3048.625 
  174000    234.66868    16132.728   -1601.7523     3048.625 
  175000     247.5006    18887.171   -1601.7519     3048.625 
  176000    244.70478     14799.36   -1601.7582     3048.625 
  177000    278.95589     17272.35   -1601.7592     3048.625 
  178000    299.95188    8992.6684   -1601.7516     3048.625 
  179000    310.84345    11778.928   -1601.7519     3048.625 
  180000    295.26586    8610.9456   -1601.7483     3048.625 
  181000    289.13801     11251.31   -1601.7505     3048.625 
  182000    269.55942    12707.441   -1601.7506     3048.625 
  183000    260.66751    18192.054   -1601.7528     3048.625 
  184000     270.7415    15900.287   -1601.7507     3048.625 
  185000    291.01657    11562.954   -1601.7534     3048.625 
  186000    285.16629    10403.512     -1601.75     3048.625 
  187000    291.60796    8085.9878   -1601.7521     3048.625 
  188000    285.82346    11563.098   -1601.7455     3048.625 
  189000    251.19619    17916.902   -1601.7482     3048.625 
  190000    289.16165    9004.4306   -1601.7563     3048.625 
  191000    255.59072    15562.554   -1601.7517     3048.625 
  192000    292.21429    8481.7805   -1601.7582     3048.625 
  193000    274.34546    16837.095   -1601.7531     3048.625 
  194000    287.76771    4834.9189   -1601.7476     3048.625 
  195000    305.62646    10159.536   -1601.7565     3048.625 
  196000    257.24653    11199.669   -1601.7468     3048.625 
  197000    263.19772    15999.697   -1601.7532     3048.625 
  198000    281.84403    5814.6841   -1601.7552     3048.625 
  199000    271.49131    16585.342   -1601.7517     3048.625 
  200000    287.32341    11644.193   -1601.7533     3048.625 
Loop time of 1078.26 on 1 procs for 100000 steps with 240 atoms

Pair  time (%) = 1067.06 (98.9606)
Bond  time (%) = 0.0217726 (0.00201923)
Neigh time (%) = 6.98272 (0.647589)
Comm  time (%) = 2.92552 (0.271317)
Outpt time (%) = 0.0030427 (0.000282185)
Other time (%) = 1.2739 (0.118144)

Nlocal:    240 ave 240 max 240 min
Histogram: 1 0 0 0 0 0 0 0 0 0
Nghost:    5784 ave 5784 max 5784 min
Histogram: 1 0 0 0 0 0 0 0 0 0
Neighs:    87979 ave 87979 max 87979 min
Histogram: 1 0 0 0 0 0 0 0 0 0
FullNghs:  175958 ave 175958 max 175958 min
Histogram: 1 0 0 0 0 0 0 0 0 0

Total # of neighbors = 175958
Ave neighs/atom = 733.158
Ave special neighs/atom = 0
Neighbor list builds = 991
Dangerous builds = 0
#	run             	10000
	unfix 			1
#--------------------------------------------------------------------------
#kappa
#--------------------------------------------------------------------------
log 	log_kappa_${iseed}.lammps
log 	log_kappa_5.lammps
