
#--------------------------------------------------------------------------
#nve rescale
#--------------------------------------------------------------------------
	velocity 		all create ${T_run} ${seed} rot yes dist gaussian
	velocity 		all create 300 ${seed} rot yes dist gaussian
	velocity 		all create 300 44444 rot yes dist gaussian

	fix 			1 all nve
	fix 			2 all temp/rescale 1 ${T_run} ${T_run} 0.01 1.0
	fix 			2 all temp/rescale 1 300 ${T_run} 0.01 1.0
	fix 			2 all temp/rescale 1 300 300 0.01 1.0
	timestep		${dt}
	timestep		0.0010000000000000000208
	thermo_style  		custom step temp press etotal vol
	thermo			1000
	run             	100000
Memory usage per processor = 4.94889 Mbytes
Step Temp Press TotEng Volume 
       0          300    170606.47   -1574.3912     3048.625 
    1000          300   -13993.993   -1595.9806     3048.625 
    2000          300   -14167.842    -1597.499     3048.625 
    3000          300     16010.31   -1597.5808     3048.625 
    4000          300    36908.904    -1598.005     3048.625 
    5000          300    30468.002   -1597.7618     3048.625 
    6000          300    18204.354   -1598.5262     3048.625 
    7000          300   -7682.8358   -1597.0334     3048.625 
    8000          300   -16611.659   -1597.2543     3048.625 
    9000          300    -14166.89   -1598.0381     3048.625 
   10000          300   -547.58806    -1597.797     3048.625 
   11000          300    14486.793   -1597.6838     3048.625 
   12000          300    22064.002   -1598.2363     3048.625 
   13000          300    19972.633   -1598.0936     3048.625 
   14000          300     7963.214   -1597.4594     3048.625 
   15000          300   -11657.964   -1597.3823     3048.625 
   16000          300   -5221.9871    -1598.346     3048.625 
   17000          300    6469.4454   -1597.3959     3048.625 
   18000          300    8442.8678    -1597.831     3048.625 
   19000          300     9670.655   -1597.1819     3048.625 
   20000          300    1471.2269   -1598.0477     3048.625 
   21000          300     3622.555   -1597.7477     3048.625 
   22000          300    -466.0432   -1597.6881     3048.625 
   23000          300    2887.5423   -1598.6265     3048.625 
   24000          300     14321.18    -1597.976     3048.625 
   25000          300     15181.79   -1597.5038     3048.625 
   26000          300    3118.8706    -1598.226     3048.625 
   27000          300   -8832.0772   -1597.8958     3048.625 
   28000          300    -7290.076   -1598.0364     3048.625 
   29000          300    8893.5299   -1598.4596     3048.625 
   30000          300    13204.323   -1598.8735     3048.625 
   31000          300    8749.9512   -1597.8344     3048.625 
   32000          300   -10839.198   -1598.3506     3048.625 
   33000          300    4828.0287    -1597.947     3048.625 
   34000          300    10666.366   -1598.2122     3048.625 
   35000          300    3310.7184   -1598.0257     3048.625 
   36000          300    -314.8479   -1597.9924     3048.625 
   37000          300   -1306.8244   -1598.4587     3048.625 
   38000          300    10649.713   -1598.5289     3048.625 
   39000          300    10460.085   -1597.5463     3048.625 
   40000          300     1196.195   -1597.8338     3048.625 
   41000          300     6056.511   -1597.1686     3048.625 
   42000          300    7128.5612   -1597.7464     3048.625 
   43000          300    11493.485   -1597.9564     3048.625 
   44000          300    3742.1332   -1598.7632     3048.625 
   45000          300     10656.84   -1598.3104     3048.625 
   46000          300     12480.76   -1597.8217     3048.625 
   47000          300    9580.6318   -1598.2837     3048.625 
   48000          300    1946.3662   -1598.8141     3048.625 
   49000          300    9372.3222   -1596.5508     3048.625 
   50000          300    12599.543   -1598.3815     3048.625 
   51000          300    5363.2579   -1599.2641     3048.625 
   52000          300    7884.6427   -1598.9881     3048.625 
   53000          300    3859.7579   -1599.6303     3048.625 
   54000          300    9933.2927   -1598.4468     3048.625 
   55000          300    9523.5362   -1598.3108     3048.625 
   56000          300    1857.5561   -1598.0355     3048.625 
   57000          300     10110.93   -1598.6438     3048.625 
   58000          300    15515.002   -1597.8316     3048.625 
   59000          300     11728.74    -1597.815     3048.625 
   60000          300    3103.5936   -1599.2309     3048.625 
   61000          300    8036.7972   -1599.3732     3048.625 
   62000          300    9945.7123   -1599.2418     3048.625 
   63000          300    7927.0902   -1598.1192     3048.625 
   64000          300    14282.122   -1597.6356     3048.625 
   65000          300    14045.723   -1598.2992     3048.625 
   66000          300    14091.708   -1598.9247     3048.625 
   67000          300    15160.536   -1598.3983     3048.625 
   68000          300    2879.4287   -1599.4073     3048.625 
   69000          300    19192.417   -1599.0608     3048.625 
   70000    300.00579    8212.0479   -1598.8504     3048.625 
   71000          300    18768.399   -1597.5521     3048.625 
   72000          300    14527.465   -1598.4362     3048.625 
   73000          300    4848.2129   -1599.2067     3048.625 
   74000          300    3961.0034   -1600.9066     3048.625 
   75000          300    13073.374   -1599.8597     3048.625 
   76000          300     12073.17   -1598.1109     3048.625 
   77000          300    15714.654   -1598.6397     3048.625 
   78000          300    13507.967   -1598.7114     3048.625 
   79000          300    16183.214   -1598.7326     3048.625 
   80000          300    10347.839   -1599.2632     3048.625 
   81000          300     5959.538   -1600.2863     3048.625 
   82000          300    12028.783   -1598.8572     3048.625 
   83000          300    19242.107   -1599.9081     3048.625 
   84000          300    4117.9401   -1599.0305     3048.625 
   85000          300    22588.232   -1599.6037     3048.625 
   86000          300    10911.805    -1598.679     3048.625 
   87000          300     17400.18    -1597.867     3048.625 
   88000          300    15564.392   -1601.0109     3048.625 
   89000          300    6650.2412   -1600.6084     3048.625 
   90000          300    16683.983   -1599.6827     3048.625 
   91000          300    6473.8188   -1598.8592     3048.625 
   92000          300    19616.492   -1599.2276     3048.625 
   93000          300    5093.1413   -1600.4195     3048.625 
   94000          300    6608.2415   -1601.5876     3048.625 
   95000          300    3453.6216   -1601.3479     3048.625 
   96000          300    18748.617   -1600.5449     3048.625 
   97000          300    16960.592   -1598.5651     3048.625 
   98000          300    21760.351    -1599.086     3048.625 
   99000          300    7248.1134   -1599.7756     3048.625 
  100000          300    14464.586   -1600.3747     3048.625 
Loop time of 1071.54 on 1 procs for 100000 steps with 240 atoms

Pair  time (%) = 1063.31 (99.2318)
Bond  time (%) = 0.0268602 (0.00250669)
Neigh time (%) = 3.84597 (0.358919)
Comm  time (%) = 2.90368 (0.270982)
Outpt time (%) = 0.00298882 (0.000278927)
Other time (%) = 1.45222 (0.135526)

Nlocal:    240 ave 240 max 240 min
Histogram: 1 0 0 0 0 0 0 0 0 0
Nghost:    5772 ave 5772 max 5772 min
Histogram: 1 0 0 0 0 0 0 0 0 0
Neighs:    87938 ave 87938 max 87938 min
Histogram: 1 0 0 0 0 0 0 0 0 0
FullNghs:  175876 ave 175876 max 175876 min
Histogram: 1 0 0 0 0 0 0 0 0 0

Total # of neighbors = 175876
Ave neighs/atom = 732.817
Ave special neighs/atom = 0
Neighbor list builds = 545
Dangerous builds = 0
#	run             	1000
	unfix 			1
	unfix 			2
#--------------------------------------------------------------------------
#nve
#--------------------------------------------------------------------------
	fix 			1 all nve
	timestep		${dt}
	timestep		0.0010000000000000000208
	thermo_style  		custom step temp press etotal vol
	thermo			1000
	run             	100000
Memory usage per processor = 5.40665 Mbytes
Step Temp Press TotEng Volume 
  100000          300    14464.586   -1600.3747     3048.625 
  101000    313.74049    6481.1149   -1600.3739     3048.625 
  102000    330.43399    14354.874   -1600.3771     3048.625 
  103000    318.36157    9585.1485   -1600.3816     3048.625 
  104000    294.50542    17047.625    -1600.376     3048.625 
  105000    327.67533    1891.2996   -1600.3738     3048.625 
  106000    335.22707    11981.763   -1600.3745     3048.625 
  107000    304.33522    13129.011   -1600.3783     3048.625 
  108000    296.55824    11930.244   -1600.3733     3048.625 
  109000     323.7127    11688.218   -1600.3744     3048.625 
  110000    312.26538     8607.854    -1600.376     3048.625 
  111000    321.31515    7406.8485   -1600.3794     3048.625 
  112000     300.3904    13300.014   -1600.3685     3048.625 
  113000    336.38819    7898.2592   -1600.3777     3048.625 
  114000    307.66701    12769.772   -1600.3739     3048.625 
  115000    341.45255    1110.4096   -1600.3745     3048.625 
  116000    315.85117    9995.3344   -1600.3767     3048.625 
  117000    316.97277    9468.5725   -1600.3756     3048.625 
  118000    315.04518    8638.4378   -1600.3791     3048.625 
  119000    298.25953     12301.86   -1600.3784     3048.625 
  120000    301.58612    13791.837   -1600.3749     3048.625 
  121000    271.88569    16468.085   -1600.3763     3048.625 
  122000    284.38261    13437.057   -1600.3774     3048.625 
  123000    299.65682    13101.067   -1600.3712     3048.625 
  124000    269.69746    11237.935   -1600.3687     3048.625 
  125000     295.8851    16099.775   -1600.3792     3048.625 
  126000    328.03402    8343.7833   -1600.3767     3048.625 
  127000    305.39895    8955.4608    -1600.373     3048.625 
  128000    318.34237    9555.1172   -1600.3735     3048.625 
  129000    295.53776    9829.8413   -1600.3768     3048.625 
  130000    354.73397     7952.954    -1600.377     3048.625 
  131000    318.56463    9019.0808   -1600.3753     3048.625 
  132000    317.33317    6516.5317   -1600.3768     3048.625 
  133000    333.63604     4574.617   -1600.3763     3048.625 
  134000    320.36112    8233.9378   -1600.3741     3048.625 
  135000    321.44555     8385.645   -1600.3817     3048.625 
  136000    323.79553    10629.516   -1600.3783     3048.625 
  137000    327.21436    5096.8001   -1600.3797     3048.625 
  138000    327.20766    12488.343   -1600.3783     3048.625 
  139000    321.33407    5119.6495   -1600.3787     3048.625 
  140000    308.43587    6699.2377   -1600.3636     3048.625 
  141000    312.86862    12366.307   -1600.3744     3048.625 
  142000     317.2103     13682.49   -1600.3846     3048.625 
  143000    300.41462     12510.35   -1600.3699     3048.625 
  144000    300.23116    13687.872   -1600.3787     3048.625 
  145000    316.98807    190.54318   -1600.3782     3048.625 
  146000    292.05733    15952.857   -1600.3761     3048.625 
  147000    306.41969    9297.1715   -1600.3773     3048.625 
  148000    316.75235    8069.7588   -1600.3708     3048.625 
  149000    310.85138    11948.998    -1600.377     3048.625 
  150000    301.43375    15857.605   -1600.3717     3048.625 
  151000      326.824    8527.2415   -1600.3797     3048.625 
  152000    327.84087    7479.5704   -1600.3772     3048.625 
  153000    340.91617    5462.7241    -1600.378     3048.625 
  154000    343.14949    5842.0686   -1600.3762     3048.625 
  155000    341.76877    2967.8549   -1600.3799     3048.625 
  156000    327.72152    5270.5381   -1600.3764     3048.625 
  157000     318.5567    11409.134   -1600.3767     3048.625 
  158000    310.32377    2060.3525   -1600.3726     3048.625 
  159000    292.71028    17433.621   -1600.3774     3048.625 
  160000    304.10679    9205.6811   -1600.3689     3048.625 
  161000    321.38932    6523.8612   -1600.3724     3048.625 
  162000    292.76408    11186.885    -1600.373     3048.625 
  163000     323.5187    3670.7725    -1600.373     3048.625 
  164000    290.94617    13878.787   -1600.3761     3048.625 
  165000    304.74113    13215.957   -1600.3791     3048.625 
  166000    297.85613    14721.152   -1600.3773     3048.625 
  167000     281.8703    16005.867   -1600.3808     3048.625 
  168000    308.19158    19372.595   -1600.3767     3048.625 
  169000    266.94937    8570.0167   -1600.3715     3048.625 
  170000    263.07669    17517.707   -1600.3714     3048.625 
  171000    321.01048    6146.7473   -1600.3742     3048.625 
  172000    311.15654    10122.534   -1600.3745     3048.625 
  173000    308.45016    6348.1629   -1600.3695     3048.625 
  174000    315.13042    17852.901   -1600.3778     3048.625 
  175000    283.96578     7846.227   -1600.3707     3048.625 
  176000    330.42508    16223.171   -1600.3819     3048.625 
  177000    313.26883    6235.9433    -1600.378     3048.625 
  178000    258.94044    16997.698   -1600.3746     3048.625 
  179000    309.83432    9340.2386   -1600.3782     3048.625 
  180000    279.12178    15441.974   -1600.3744     3048.625 
  181000    259.24719    10005.392   -1600.3674     3048.625 
  182000    323.91806     5956.035   -1600.3804     3048.625 
  183000    300.90464    10018.188   -1600.3794     3048.625 
  184000    303.49109    4901.5388    -1600.378     3048.625 
  185000    299.00647    13247.383   -1600.3761     3048.625 
  186000    308.45987    10881.555   -1600.3861     3048.625 
  187000    303.68337    10904.641    -1600.379     3048.625 
  188000    290.06411    13501.853   -1600.3762     3048.625 
  189000    304.21447    10511.771   -1600.3764     3048.625 
  190000    310.13759    7224.9201   -1600.3766     3048.625 
  191000    311.31711    8889.5704     -1600.38     3048.625 
  192000    311.15311    10821.727   -1600.3813     3048.625 
  193000    307.87017    7961.8812    -1600.374     3048.625 
  194000    304.26904    12686.043     -1600.38     3048.625 
  195000     270.5909     17569.27   -1600.3737     3048.625 
  196000    295.51469    10193.727   -1600.3732     3048.625 
  197000      293.964    7201.3951   -1600.3748     3048.625 
  198000     304.2432    10314.275   -1600.3765     3048.625 
  199000    293.37806    14591.714   -1600.3809     3048.625 
  200000    303.55351    8575.8585   -1600.3809     3048.625 
Loop time of 1070.06 on 1 procs for 100000 steps with 240 atoms

Pair  time (%) = 1059.12 (98.977)
Bond  time (%) = 0.0233123 (0.00217859)
Neigh time (%) = 6.70471 (0.626572)
Comm  time (%) = 2.94516 (0.275232)
Outpt time (%) = 0.00309849 (0.000289561)
Other time (%) = 1.26997 (0.118682)

Nlocal:    240 ave 240 max 240 min
Histogram: 1 0 0 0 0 0 0 0 0 0
Nghost:    5811 ave 5811 max 5811 min
Histogram: 1 0 0 0 0 0 0 0 0 0
Neighs:    87907 ave 87907 max 87907 min
Histogram: 1 0 0 0 0 0 0 0 0 0
FullNghs:  175814 ave 175814 max 175814 min
Histogram: 1 0 0 0 0 0 0 0 0 0

Total # of neighbors = 175814
Ave neighs/atom = 732.558
Ave special neighs/atom = 0
Neighbor list builds = 953
Dangerous builds = 0
#	run             	10000
	unfix 			1
#--------------------------------------------------------------------------
#kappa
#--------------------------------------------------------------------------
log 	log_kappa_${iseed}.lammps
log 	log_kappa_4.lammps
