  LAMMPS description
 
     240   atoms
       0   bonds
       0   angles
       0   dihedrals
 
       4   atom types
       0   bond types
       0   angle types
       0   dihedral types
 
       0   14.300000     xlo xhi
       0   14.300000     ylo yhi
       0   14.300000     zlo zhi
  0.0000000      0.0000000      0.0000000     xy xz yz

  Masses

       1   12.010000
       2   12.010000
       3   12.010000
       4   12.010000

   Atoms

1	1	1	0	2.34	2.6	-0.594
2	1	1	0	1.932411	2.933365	0.705451
3	1	1	0	1.580368	3.083897	-1.73059
4	1	1	0	0.399467	3.82203	-1.481692
5	1	1	0	2.449423	0.973509	-2.084718
6	1	1	0	2.113944	-0.374888	-2.286676
7	1	1	0	3.086831	1.378125	-0.849817
8	1	1	0	3.336869	0.449838	0.188256
9	1	1	0	1.647797	2.015067	-2.727119
10	1	1	0	0.534648	1.640854	-3.52878
11	1	1	0	0.772569	3.781382	0.928341
12	1	1	0	-0.011861	4.296502	-0.140594
13	1	1	0	0.20559	3.098199	2.075599
14	1	1	0	-1.191131	2.932479	2.155623
15	1	1	0	2.190146	2.036538	1.792432
16	1	1	0	2.75757	0.779314	1.492653
17	1	1	0	1.084115	2.154037	2.751463
18	1	1	0	0.537181	1.032677	3.447316
19	1	1	0	-1.479049	4.07947	-0.048174
20	1	1	0	-2.03758	3.450969	1.104819
21	1	1	0	-1.94394	3.505906	-1.329556
22	1	1	0	-2.986758	2.556221	-1.420824
23	1	1	0	-0.777123	3.286697	-2.133266
24	1	1	0	-0.714939	2.260819	-3.105707
25	1	1	0	-3.095945	2.426679	1.014125
26	1	1	0	-3.653719	2.025808	-0.22968
27	1	1	0	-2.847967	1.45537	2.036971
28	1	1	0	-3.183467	0.107009	1.834931
29	1	1	0	-1.743668	1.823876	2.914857
30	1	1	0	-0.940122	0.861433	3.59516
31	1	1	0	-4.070896	0.630736	-0.438029
32	1	1	0	-3.820995	-0.297496	0.600034
33	1	1	0	-3.491481	0.301169	-1.742379
34	1	1	0	-2.924158	-0.956061	-2.04229
35	1	1	0	-2.879017	1.464294	-2.351209
36	1	1	0	-1.797381	1.346676	-3.247208
37	1	1	0	-3.074331	-1.519176	0.343934
38	1	1	0	-2.666583	-1.852912	-0.955355
39	1	1	0	-2.314461	-2.003263	1.480564
40	1	1	0	-1.133555	-2.741505	1.231874
41	1	1	0	-2.381787	-0.93456	2.477249
42	1	1	0	-1.268645	-0.560435	3.278976
43	1	1	0	-1.506633	-2.700962	-1.178069
44	1	1	0	-0.722163	-3.216054	-0.109154
45	1	1	0	-0.939588	-2.017723	-2.325292
46	1	1	0	0.457137	-1.852032	-2.405315
47	1	1	0	-1.818078	-1.073571	-3.001219
48	1	1	0	-1.271165	0.047764	-3.697082
49	1	1	0	0.745045	-2.999034	-0.201554
50	1	1	0	1.303609	-2.370517	-1.354536
51	1	1	0	1.209945	-2.425442	1.079818
52	1	1	0	2.252788	-1.475762	1.171085
53	1	1	0	0.043093	-2.206277	1.883518
54	1	1	0	-0.019041	-1.180395	2.855956
55	1	1	0	2.36198	-1.346219	-1.263844
56	1	1	0	2.919772	-0.945305	-0.02005
57	1	1	0	1.009665	-0.743425	-3.164548
58	1	1	0	0.206134	0.218988	-3.844909
59	1	1	0	2.145082	-0.38383	2.10148
60	1	1	0	1.063413	-0.266236	2.99745
61	2	2	0	8.303722	10.452054	-1.350844
62	2	2	0	7.746103	11.077979	-0.196041
63	2	2	0	7.45655	9.936166	-2.402128
64	2	2	0	6.059746	10.101562	-2.319857
65	2	2	0	9.113071	8.458914	-2.28771
66	2	2	0	9.446399	7.109765	-2.086877
67	2	2	0	9.36231	9.42788	-1.263013
68	2	2	0	9.920885	9.024513	-0.020288
69	2	2	0	8.00852	8.828998	-3.16476
70	2	2	0	7.203705	7.867862	-3.845728
71	2	2	0	6.279325	11.29534	-0.102355
72	2	2	0	5.493784	10.783323	-1.171543
73	2	2	0	5.869453	10.817734	1.237515
74	2	2	0	4.687821	10.080969	1.486594
75	2	2	0	8.212347	10.502949	1.084205
76	2	2	0	9.254682	9.552414	1.172563
77	2	2	0	7.046289	10.283012	1.889067
78	2	2	0	6.984292	9.256025	2.860458
79	2	2	0	4.333441	9.935438	-0.949256
80	2	2	0	3.926701	9.599509	0.349816
81	2	2	0	4.073927	9.041333	-2.038224
82	2	2	0	3.507259	7.783767	-1.739214
83	2	2	0	5.180106	9.159777	-2.997083
84	2	2	0	5.726613	8.039466	-3.69488
85	2	2	0	3.180189	8.377595	0.604502
86	2	2	0	2.928807	7.451545	-0.435037
87	2	2	0	3.819512	7.970473	1.83743
88	2	2	0	4.152793	6.621336	2.038313
89	2	2	0	4.621451	9.010736	2.481936
90	2	2	0	5.734508	8.635486	3.283459
91	2	2	0	3.345059	6.055817	-0.229095
92	2	2	0	3.903555	5.652393	1.013624
93	2	2	0	4.011282	5.527984	-1.421916
94	2	2	0	5.053574	4.577433	-1.333542
95	2	2	0	4.119191	6.621681	-2.350399
96	2	2	0	5.200206	6.740312	-3.246657
97	2	2	0	4.962088	4.628166	1.101465
98	2	2	0	5.519736	4.002277	-0.053335
99	2	2	0	5.809257	5.144126	2.152692
100	2	2	0	7.206049	4.978777	2.070351
101	2	2	0	5.257308	6.251277	2.91537
102	2	2	0	6.062122	7.212415	3.596339
103	2	2	0	6.986509	3.784865	-0.147051
104	2	2	0	7.772045	4.296909	0.922121
105	2	2	0	7.396375	4.262525	-1.486909
106	2	2	0	8.578013	4.999292	-1.736004
107	2	2	0	6.219571	4.797318	-2.138432
108	2	2	0	6.281553	5.824336	-3.109769
109	2	2	0	8.932381	5.144792	0.699845
110	2	2	0	9.339128	5.480738	-0.599221
111	2	2	0	9.191866	6.038943	1.788769
112	2	2	0	9.758491	7.296512	1.489745
113	2	2	0	8.085674	5.92055	2.74757
114	2	2	0	7.539203	7.040835	3.445399
115	2	2	0	10.08565	6.702648	-0.853912
116	2	2	0	10.337014	7.628722	0.185616
117	2	2	0	8.644435	6.069516	-2.731372
118	2	2	0	7.531332	6.444836	-3.532792
119	2	2	0	9.146622	8.458617	2.100945
120	2	2	0	8.06561	8.339989	2.99722
121	3	3	0	9.329822	2.608571	6.400016
122	3	3	0	8.920769	2.94766	7.697396
123	3	3	0	8.571144	3.085373	5.260025
124	3	3	0	7.385822	3.817063	5.505353
125	3	3	0	9.449206	0.977316	4.915655
126	3	3	0	9.120722	-0.373589	4.719432
127	3	3	0	10.082077	1.389301	6.150136
128	3	3	0	10.337397	0.467716	7.192804
129	3	3	0	8.644161	2.01303	4.267071
130	3	3	0	7.533796	1.631132	3.464212
131	3	3	0	7.757002	3.791266	7.914827
132	3	3	0	6.97165	4.297101	6.842783
133	3	3	0	7.191764	3.109457	9.063466
134	3	3	0	5.795291	2.940866	9.145644
135	3	3	0	9.183365	2.05807	8.78977
136	3	3	0	9.754494	0.801912	8.494551
137	3	3	0	8.074511	2.173595	9.74538
138	3	3	0	7.531303	1.053338	10.445515
139	3	3	0	5.506243	4.072022	6.933974
140	3	3	0	4.949263	3.446885	8.089312
141	3	3	0	5.042996	3.493486	5.654536
142	3	3	0	4.002683	2.540507	5.566272
143	3	3	0	6.212283	3.274867	4.853585
144	3	3	0	6.280503	2.247964	3.882926
145	3	3	0	3.894006	2.418979	8.00174
146	3	3	0	3.335784	2.012325	6.759426
147	3	3	0	4.145261	1.454478	9.030564
148	3	3	0	3.816795	0.103531	8.834587
149	3	3	0	5.246899	1.832333	9.90839
150	3	3	0	6.054513	0.876097	10.593461
151	3	3	0	2.928528	0.613043	6.55735
152	3	3	0	3.183785	-0.308471	7.600139
153	3	3	0	3.511515	0.278918	5.255665
154	3	3	0	4.082642	-0.977312	4.96061
155	3	3	0	4.121898	1.441832	4.645132
156	3	3	0	5.203983	1.325841	3.749453
157	3	3	0	3.93614	-1.527745	7.350516
158	3	3	0	4.34522	-1.866807	6.053118
159	3	3	0	4.694882	-2.004386	8.490591
160	3	3	0	5.880321	-2.736004	8.245434
161	3	3	0	4.621889	-0.93197	9.483467
162	3	3	0	5.732174	-0.55015	10.286546
163	3	3	0	5.509087	-2.710269	5.835755
164	3	3	0	6.294471	-3.215846	6.9079
165	3	3	0	6.074173	-2.028641	4.686875
166	3	3	0	7.470634	-1.86001	4.60449
167	3	3	0	5.191416	-1.09277	4.004905
168	3	3	0	5.734574	0.027668	3.304941
169	3	3	0	7.759803	-2.990803	6.81636
170	3	3	0	8.316756	-2.366106	5.660753
171	3	3	0	8.222868	-2.412202	8.095825
172	3	3	0	9.263203	-1.459336	8.183781
173	3	3	0	7.053853	-2.193965	8.897288
174	3	3	0	6.985592	-1.167016	9.868139
175	3	3	0	9.372173	-1.338278	5.748111
176	3	3	0	9.930181	-0.931538	6.990516
177	3	3	0	8.018959	-0.751384	3.841779
178	3	3	0	7.211373	0.205048	3.156967
179	3	3	0	9.144016	-0.360867	9.105213
180	3	3	0	8.062078	-0.244871	10.001122
181	4	4	0	1.315687	10.442478	5.640524
182	4	4	0	0.765269	11.067473	6.799085
183	4	4	0	0.459513	9.933562	4.593483
184	4	4	0	-0.936032	10.106789	4.684166
185	4	4	0	2.105033	8.44502	4.701918
186	4	4	0	2.431069	7.093949	4.899671
187	4	4	0	2.371436	9.414023	5.723052
188	4	4	0	2.935326	9.006698	6.962822
189	4	4	0	1.00033	8.822491	3.829106
190	4	4	0	0.187017	7.86648	3.151746
191	4	4	0	-0.698558	11.297411	6.901262
192	4	4	0	-1.492087	10.790806	5.835915
193	4	4	0	-1.104819	10.82294	8.243483
194	4	4	0	-2.290713	10.094225	8.499092
195	4	4	0	1.234112	10.488672	8.075934
196	4	4	0	2.273781	9.53461	8.158476
197	4	4	0	0.072408	10.279694	8.888892
198	4	4	0	0.009234	9.253891	9.861109
199	4	4	0	-2.654699	9.948808	6.063818
200	4	4	0	-3.057086	9.615339	7.364841
201	4	4	0	-2.929536	9.05915	4.973973
202	4	4	0	-3.503803	7.805225	5.275087
203	4	4	0	-1.825435	9.171498	4.011173
204	4	4	0	-1.28739	8.047464	3.313238
205	4	4	0	-3.808477	8.397066	7.621436
206	4	4	0	-4.07562	7.473797	6.583134
207	4	4	0	-3.165336	7.986656	8.850818
208	4	4	0	-2.839152	6.635603	9.048534
209	4	4	0	-2.358129	9.022845	9.495175
210	4	4	0	-1.242366	8.639835	10.290345
211	4	4	0	-3.669204	6.073978	6.787607
212	4	4	0	-3.105355	5.666639	8.027346
213	4	4	0	-3.007687	5.54604	5.592004
214	4	4	0	-1.968116	4.591911	5.674499
215	4	4	0	-2.896611	6.639929	4.664799
216	4	4	0	-1.817886	6.752016	3.764988
217	4	4	0	-2.049662	4.63814	8.109853
218	4	4	0	-1.499291	4.013088	6.951327
219	4	4	0	-1.193525	5.147014	9.156915
220	4	4	0	0.202005	4.973713	9.066259
221	4	4	0	-1.734403	6.258072	9.921258
222	4	4	0	-0.9211	7.214082	10.598606
223	4	4	0	-0.035493	3.782981	6.849174
224	4	4	0	0.75803	4.289541	7.914564
225	4	4	0	0.370637	4.257533	5.506927
226	4	4	0	1.556391	4.986473	5.251438
227	4	4	0	-0.806524	4.800765	4.861406
228	4	4	0	-0.743363	5.826567	3.889162
229	4	4	0	1.920544	5.131691	7.68672
230	4	4	0	2.322707	5.465336	6.385698
231	4	4	0	2.195502	6.021341	8.776515
232	4	4	0	2.76974	7.275279	8.47536
233	4	4	0	1.091378	5.909016	9.739258
234	4	4	0	0.553303	7.033066	10.437125
235	4	4	0	3.074114	6.683566	6.129074
236	4	4	0	3.341491	7.606798	7.167325
237	4	4	0	1.623876	6.057768	4.255306
238	4	4	0	0.508215	6.440708	3.459977
239	4	4	0	2.162579	8.440622	9.0856
240	4	4	0	1.083797	8.328502	9.985339


   Bonds


   Angles


   Dihedrals


