#	reset_timestep  	0
	fix 			1 all nve

	compute		keSource all ke/atom
	compute		keSource2 all atom/molecule c_keSource
	compute		keSink all ke/atom
	compute		keSink2 all atom/molecule c_keSink
	fix		cRes hSink heat 1 -${heat}
	fix		cRes hSink heat 1 -0.03
	fix		hRes hSource heat 1 ${heat}
	fix		hRes hSource heat 1 0.03
	fix		3 moving ave/time 10 100 1000 c_movingTemp
    	thermo_style	custom step c_movingTemp press etotal pe ke vol

	fix 		kemolSource all ave/time 10 100 1000 c_keSource2 file kemolSource.txt mode vector
	fix 		kemolSink all ave/time 10 100 1000 c_keSink2 file kemolSink.txt mode vector
	
	compute 		myDis all msd 
	thermo_style 		custom step temp press vol c_myDis[4] c_movingTemp 
	thermo			1000
	timestep		${dt}
	timestep		0.001
	run			3000000
WARNING: More than one compute ke/atom
WARNING: More than one compute ke/atom
Memory usage per processor = 3.97196 Mbytes
Step Temp Press Volume myDis[4] movingTe 
  200000     259.9769    19060.294     2924.207 2.3928983e-30     259.9769 
  201000    297.41815    8537.8098     2924.207    10.242089    297.41815 
  202000    283.51363    10839.576     2924.207    28.080521    283.51363 
  203000    265.26421    20367.344     2924.207    35.612864    265.26421 
  204000    286.26948    5018.4481     2924.207    28.241239    286.26948 
  205000    299.31027    12917.219     2924.207    15.540435    299.31027 
  206000    287.21157     19234.81     2924.207    14.428986    287.21157 
  207000    277.22172    10709.839     2924.207    25.223018    277.22172 
  208000    295.00287    17822.673     2924.207    33.136898    295.00287 
  209000    277.15556    11014.017     2924.207    24.925977    277.15556 
  210000    292.54867    12821.592     2924.207    16.266205    292.54867 
  211000    267.50014    9659.2918     2924.207    21.268741    267.50014 
  212000     292.6404    15959.738     2924.207    28.778166     292.6404 
  213000    299.84683    8714.1276     2924.207    28.950091    299.84683 
  214000    276.23463    17325.198     2924.207    21.586845    276.23463 
  215000    291.66903    11363.777     2924.207    17.162027    291.66903 
  216000    261.29176    14201.541     2924.207    20.390417    261.29176 
  217000    285.37042     18513.67     2924.207    25.037735    285.37042 
  218000    288.73627    16185.322     2924.207    24.418798    288.73627 
  219000    268.66787    15365.851     2924.207    23.746852    268.66787 
  220000    284.50245    15300.207     2924.207    22.972074    284.50245 
  221000    279.19653    15591.589     2924.207    21.925436    279.19653 
  222000    301.33273    15655.789     2924.207    15.095179    301.33273 
  223000    295.67466    13522.805     2924.207    19.242656    295.67466 
  224000    277.23101    13573.144     2924.207    28.859011    277.23101 
  225000    300.68918    3475.7981     2924.207    27.635135    300.68918 
  226000    291.45896    19510.563     2924.207    29.590152    291.45896 
  227000    286.97053    10036.709     2924.207    31.028793    286.97053 
  228000    292.37606    13542.139     2924.207    29.361973    292.37606 
  229000    299.89644    9750.7344     2924.207    35.531862    299.89644 
  230000      296.025    10027.613     2924.207    32.682893      296.025 
  231000    311.85306    7580.4783     2924.207     30.18675    311.85306 
  232000     306.8829    12021.322     2924.207    32.893942     306.8829 
  233000    289.00706    8991.1945     2924.207     28.82591    289.00706 
  234000    306.97549    16607.344     2924.207    32.620777    306.97549 
  235000    282.52306    8967.4948     2924.207    29.752813    282.52306 
  236000    306.36477    8513.7303     2924.207    25.380956    306.36477 
  237000    286.44993    12756.515     2924.207    29.441312    286.44993 
  238000    289.01739    3987.6859     2924.207     28.20751    289.01739 
  239000    273.35707    16719.862     2924.207    28.358861    273.35707 
  240000    292.33145    11396.668     2924.207    30.525381    292.33145 
  241000    299.44625    9721.2466     2924.207    20.811624    299.44625 
  242000    278.36547    17623.172     2924.207    19.404554    278.36547 
  243000     305.2711    11004.299     2924.207    26.661061     305.2711 
  244000    294.77957    9380.0018     2924.207    25.742249    294.77957 
  245000    290.83428    16156.988     2924.207    24.975216    290.83428 
  246000    280.71863    21089.659     2924.207    28.184132    280.71863 
  247000    267.95916    13622.107     2924.207    24.567879    267.95916 
  248000    298.93481    5981.4515     2924.207     18.07535    298.93481 
  249000    277.69308    14503.256     2924.207    21.286882    277.69308 
  250000    301.12223    11834.001     2924.207    24.080679    301.12223 
  251000    268.03473    16338.494     2924.207    26.698952    268.03473 
  252000       303.54    7961.0536     2924.207    27.886076       303.54 
  253000    267.94404    13392.205     2924.207    30.898265    267.94404 
  254000    301.97823    10333.159     2924.207    30.033285    301.97823 
  255000    274.31769    16999.346     2924.207    26.024464    274.31769 
  256000    304.26636    8455.8985     2924.207    23.129823    304.26636 
  257000    247.84965    8376.0088     2924.207    25.896768    247.84965 
  258000    297.04344    16440.314     2924.207    28.811938    297.04344 
  259000    253.71153    12583.314     2924.207    28.452691    253.71153 
  260000    295.11312    8022.7617     2924.207    26.179476    295.11312 
  261000    299.10508    9044.1868     2924.207    25.990851    299.10508 
  262000    271.95488    12556.685     2924.207    27.872531    271.95488 
  263000    294.59832    7743.7904     2924.207    27.451458    294.59832 
  264000    276.74037     21732.88     2924.207    24.587948    276.74037 
  265000    307.56504    7648.7669     2924.207    27.345364    307.56504 
  266000    293.79777    15096.083     2924.207    33.946944    293.79777 
  267000    290.14374    17668.792     2924.207    35.616749    290.14374 
  268000    285.37634    9859.9759     2924.207    34.208157    285.37634 
  269000    271.05296    17931.923     2924.207    31.757644    271.05296 
  270000    277.88923    8106.1708     2924.207    32.242512    277.88923 
  271000    265.62282    20308.639     2924.207    32.991078    265.62282 
  272000    264.66866    6673.2616     2924.207    32.100133    264.66866 
  273000    262.82359    15729.384     2924.207    31.049718    262.82359 
  274000    304.33358    11214.498     2924.207    30.846126    304.33358 
  275000    301.04713    9389.7684     2924.207    33.351954    301.04713 
  276000    293.52783    9604.0848     2924.207    33.917853    293.52783 
  277000    292.19439    12314.154     2924.207    31.215302    292.19439 
  278000     266.2838     18918.27     2924.207    28.992319     266.2838 
  279000    291.84088    10787.273     2924.207    29.030353    291.84088 
  280000    286.74422     9492.278     2924.207    32.194093    286.74422 
  281000    307.55436    9442.8887     2924.207    34.110929    307.55436 
  282000    258.03977    13646.957     2924.207    35.117231    258.03977 
  283000    264.01937    13117.182     2924.207    33.102324    264.01937 
  284000    282.06673    11487.922     2924.207    31.817794    282.06673 
  285000    271.27471     12460.47     2924.207    34.108751    271.27471 
  286000    287.62782    13593.794     2924.207    34.158045    287.62782 
  287000    249.76699    14442.349     2924.207    31.700336    249.76699 
  288000     277.5675    15146.159     2924.207    31.418209     277.5675 
  289000    304.86926    11007.461     2924.207    30.336624    304.86926 
  290000     265.7903    9398.7071     2924.207    29.748157     265.7903 
  291000    264.62892    12480.456     2924.207    29.981421    264.62892 
  292000    315.64535    3843.0237     2924.207    31.425408    315.64535 
  293000     253.2364    20340.763     2924.207     32.37226     253.2364 
  294000    280.54467    13690.522     2924.207    33.157538    280.54467 
  295000    266.14914    12918.025     2924.207     33.24791    266.14914 
  296000    275.22533    14034.063     2924.207    31.838462    275.22533 
  297000      262.456    18344.216     2924.207    30.665806      262.456 
  298000    282.51011    20769.892     2924.207    30.536542    282.51011 
  299000    257.17001    10350.555     2924.207    28.530756    257.17001 
  300000    247.31649    21209.084     2924.207    27.792111    247.31649 
  301000     303.7491    9015.5533     2924.207    27.287513     303.7491 
  302000    271.73847     20614.18     2924.207    25.022675    271.73847 
  303000    245.73553    10954.315     2924.207    20.327325    245.73553 
  304000    297.61537    11206.003     2924.207    17.368073    297.61537 
  305000    251.05364    12910.161     2924.207    20.265459    251.05364 
  306000    272.29724    13399.834     2924.207    25.198115    272.29724 
  307000    262.93876    6924.2714     2924.207    30.087105    262.93876 
  308000    265.52848    23779.691     2924.207    32.966331    265.52848 
  309000    279.17706    1505.5017     2924.207    34.298381    279.17706 
  310000    275.73922    12721.894     2924.207    34.436732    275.73922 
  311000    276.43316    7693.0393     2924.207    32.520292    276.43316 
  312000    285.14139    12591.481     2924.207    29.428682    285.14139 
  313000    253.85664    17867.638     2924.207     24.78767    253.85664 
  314000    288.73825    10401.642     2924.207    24.866918    288.73825 
  315000     288.1814    12484.547     2924.207    25.616151     288.1814 
  316000    279.29044    11849.592     2924.207    28.138245    279.29044 
  317000    291.89128    11058.746     2924.207    31.418539    291.89128 
  318000    262.34212    17794.608     2924.207    33.798945    262.34212 
  319000    290.02923    5949.8651     2924.207    31.552988    290.02923 
  320000    271.91237    18909.639     2924.207    25.370218    271.91237 
  321000    284.41006    8409.3164     2924.207    23.721007    284.41006 
  322000    252.23999    20423.075     2924.207    26.373221    252.23999 
  323000    293.89357    5101.3105     2924.207    32.022269    293.89357 
  324000     277.2834    15541.557     2924.207    33.499555     277.2834 
  325000    276.46542    10717.553     2924.207    28.030823    276.46542 
  326000    269.12742    12179.814     2924.207    24.214204    269.12742 
  327000      267.946    19098.125     2924.207    26.939053      267.946 
  328000    279.67492    12777.435     2924.207     30.86721    279.67492 
  329000    277.71164    8935.7098     2924.207    33.020276    277.71164 
  330000    282.54931    17909.512     2924.207    32.311902    282.54931 
  331000    258.37384     13592.82     2924.207     29.25461    258.37384 
  332000    251.30833    15122.257     2924.207    24.672508    251.30833 
  333000    279.83632    12345.346     2924.207    19.502368    279.83632 
  334000    292.55129    16349.102     2924.207    14.900256    292.55129 
  335000    273.71549    8520.5584     2924.207    15.905711    273.71549 
  336000    257.73816    19409.062     2924.207    23.136546    257.73816 
  337000    276.96742    12794.569     2924.207    31.171465    276.96742 
  338000    305.39079    5650.8959     2924.207    35.441877    305.39079 
  339000    265.58771    10680.823     2924.207    30.719628    265.58771 
  340000    277.54732    11435.573     2924.207    23.281455    277.54732 
  341000     282.0475    10236.804     2924.207    18.988805     282.0475 
  342000    288.64272    11541.371     2924.207    22.736206    288.64272 
  343000    283.33437    9686.4045     2924.207    28.582099    283.33437 
  344000    277.43089    12810.916     2924.207    28.352382    277.43089 
  345000    286.48438      11044.6     2924.207    27.893743    286.48438 
  346000    283.67241    15178.411     2924.207    30.700206    283.67241 
  347000    289.75315    5273.8659     2924.207    34.703401    289.75315 
  348000    276.60047    14890.217     2924.207    34.298028    276.60047 
  349000    278.36314    13514.424     2924.207    29.175205    278.36314 
  350000    292.46398    5811.1983     2924.207    24.535903    292.46398 
  351000    252.86875    14624.506     2924.207    22.741155    252.86875 
  352000    286.53465    8531.9453     2924.207    25.436011    286.53465 
  353000    261.29344    19087.345     2924.207    29.264965    261.29344 
  354000    272.39544     2228.001     2924.207    28.084734    272.39544 
  355000    273.10675    12849.993     2924.207    21.467431    273.10675 
  356000    289.99634    7819.7929     2924.207    16.949603    289.99634 
  357000    283.92525    4695.6598     2924.207    19.509659    283.92525 
  358000    270.99398    12624.546     2924.207     24.48672    270.99398 
  359000    267.18417    13117.477     2924.207    26.087148    267.18417 
  360000    278.52091    16406.288     2924.207    22.608727    278.52091 
  361000    272.31992    6110.4536     2924.207    20.561554    272.31992 
  362000     256.8797    17917.714     2924.207    25.348368     256.8797 
  363000     281.7641    12976.621     2924.207    31.933987     281.7641 
  364000    273.73157    17179.355     2924.207     34.71216    273.73157 
  365000     270.3872     12989.85     2924.207     32.02138     270.3872 
  366000    270.46762    10329.531     2924.207    25.129791    270.46762 
  367000    268.77666    14888.473     2924.207    20.849785    268.77666 
  368000    279.98227     13178.94     2924.207    18.078199    279.98227 
  369000    264.22102     13247.12     2924.207    19.511943    264.22102 
  370000    276.59507    13444.071     2924.207    19.174389    276.59507 
  371000    256.38087     18656.92     2924.207    22.773272    256.38087 
  372000    271.79636    8806.1776     2924.207    27.531293    271.79636 
  373000    274.71278    13499.404     2924.207    28.796885    274.71278 
  374000    280.17743    6612.0889     2924.207    26.637049    280.17743 
  375000    275.83646    13139.853     2924.207    23.545279    275.83646 
  376000    283.29199    14743.449     2924.207    23.140696    283.29199 
  377000    274.52683    15944.394     2924.207    27.520662    274.52683 
  378000    265.42348    13880.994     2924.207    29.977047    265.42348 
  379000    260.59579    10210.387     2924.207    27.399404    260.59579 
  380000    267.96356     15876.44     2924.207    23.086033    267.96356 
  381000    263.21457    9115.7049     2924.207    22.319759    263.21457 
  382000     276.6824    12437.838     2924.207    25.581877     276.6824 
  383000    271.48005    13674.501     2924.207    27.785903    271.48005 
  384000    259.74866    16965.669     2924.207    26.793382    259.74866 
  385000    274.21144    8678.0388     2924.207    23.686101    274.21144 
  386000    258.19111    13399.232     2924.207    22.720512    258.19111 
  387000    278.18987    9719.4161     2924.207    24.528714    278.18987 
  388000    279.70161    17710.067     2924.207    25.056666    279.70161 
  389000    274.44234    9495.4622     2924.207    24.734911    274.44234 
  390000    259.90292    16846.881     2924.207    26.628161    259.90292 
  391000    253.99695    17967.109     2924.207    28.966354    253.99695 
  392000     276.5499    1669.0565     2924.207    32.147296     276.5499 
  393000    266.94678    14601.739     2924.207    32.627272    266.94678 
  394000    254.83466    14699.784     2924.207    30.611358    254.83466 
  395000    276.27083      10885.2     2924.207    26.307223    276.27083 
  396000    254.30766    13513.051     2924.207    22.474047    254.30766 
  397000    276.21907     17269.33     2924.207    20.391332    276.21907 
  398000    276.96578    3487.3858     2924.207    23.800007    276.96578 
  399000     278.5255    12977.749     2924.207     28.20274     278.5255 
  400000    261.04195    15349.074     2924.207    30.219683    261.04195 
  401000    251.76283    9364.5795     2924.207     30.79128    251.76283 
  402000    270.04256    15079.534     2924.207    31.481035    270.04256 
  403000    282.93975    7240.8211     2924.207    33.247111    282.93975 
  404000    245.96955    15609.797     2924.207    34.616023    245.96955 
  405000    261.50461     8609.707     2924.207    34.715558    261.50461 
  406000    263.60282    16565.079     2924.207    33.439097    263.60282 
  407000    257.95128    8759.1529     2924.207     32.44756    257.95128 
  408000     270.1045    12555.899     2924.207     30.00971     270.1045 
  409000    272.50446    13673.735     2924.207    30.607189    272.50446 
  410000    266.23338    5006.7054     2924.207    32.427709    266.23338 
  411000    273.99519    13403.954     2924.207    32.022807    273.99519 
  412000    277.69838    8492.4484     2924.207    31.979235    277.69838 
  413000    261.23539    15980.436     2924.207    31.981375    261.23539 
  414000    263.56623    8788.3126     2924.207    30.672353    263.56623 
  415000    272.71344    15422.541     2924.207    30.084919    272.71344 
  416000    288.01668    13733.175     2924.207    28.191659    288.01668 
  417000    269.41199    9604.1369     2924.207    26.134305    269.41199 
  418000    284.97308    15458.451     2924.207    24.471365    284.97308 
  419000    283.91758    8461.2865     2924.207    25.475265    283.91758 
  420000    253.25583    11469.258     2924.207    26.065731    253.25583 
  421000    290.23737    9499.7164     2924.207    29.675283    290.23737 
  422000    277.17553    6998.4476     2924.207    33.441049    277.17553 
  423000    257.40643    16431.408     2924.207    33.087255    257.40643 
  424000     256.8512    14521.076     2924.207    29.068244     256.8512 
  425000    257.82487    8507.7326     2924.207    27.163925    257.82487 
  426000    254.99033    12494.627     2924.207    29.617536    254.99033 
  427000    283.72488    12711.678     2924.207     31.05323    283.72488 
  428000    261.48698    11946.542     2924.207    28.469048    261.48698 
  429000    274.13685     8683.595     2924.207     25.44241    274.13685 
  430000    251.01804    13627.492     2924.207    22.733083    251.01804 
  431000    279.14862    11341.027     2924.207    22.737789    279.14862 
  432000    261.24827    7580.8113     2924.207    27.418944    261.24827 
  433000    293.34001    7287.9687     2924.207    31.312371    293.34001 
  434000    275.66855    8788.6622     2924.207    30.164476    275.66855 
  435000    267.11863    12796.882     2924.207     25.78433    267.11863 
  436000    267.55819    12498.594     2924.207    25.752121    267.55819 
  437000    279.19747    10074.952     2924.207    31.401265    279.19747 
  438000     266.8497     8848.969     2924.207    34.128314     266.8497 
  439000    274.21293    12634.118     2924.207    29.818639    274.21293 
  440000     248.1686    11489.935     2924.207    23.921339     248.1686 
  441000    290.45475    5359.9206     2924.207    23.291053    290.45475 
  442000      249.647    12426.988     2924.207    25.627516      249.647 
  443000    275.50249    9333.8885     2924.207    30.146985    275.50249 
  444000    266.81964     19196.84     2924.207    34.437153    266.81964 
  445000    273.12097    6508.6417     2924.207    30.849155    273.12097 
  446000    259.33201    9019.4289     2924.207    23.062747    259.33201 
  447000    276.27642    13811.891     2924.207    16.252704    276.27642 
  448000    246.09035     16984.38     2924.207    13.643483    246.09035 
  449000    277.87416    9204.3132     2924.207    15.327464    277.87416 
  450000    245.25986    12137.204     2924.207    17.076577    245.25986 
  451000    262.56867    13742.217     2924.207    20.355126    262.56867 
  452000    264.20576    9442.1297     2924.207    22.867807    264.20576 
  453000    263.39517    13791.404     2924.207    25.242409    263.39517 
  454000    243.42264    12084.541     2924.207    23.652097    243.42264 
  455000    262.97219    13396.586     2924.207    23.313935    262.97219 
  456000    277.57636    4674.3089     2924.207    24.478726    277.57636 
  457000    255.63151    12769.035     2924.207    25.939113    255.63151 
  458000    266.47246    9459.4009     2924.207    28.627614    266.47246 
  459000      258.367    12866.605     2924.207    31.336258      258.367 
  460000    274.82906     12944.44     2924.207    31.460518    274.82906 
  461000    260.06389    10110.489     2924.207    30.165774    260.06389 
  462000    256.73912    18325.516     2924.207    29.735886    256.73912 
  463000    251.96135    6493.3243     2924.207    33.039304    251.96135 
  464000    265.72875    14310.826     2924.207    35.414536    265.72875 
  465000    277.44767    3996.7603     2924.207    34.115088    277.44767 
  466000    285.26977    8839.8905     2924.207    30.451543    285.26977 
  467000    232.66588    15473.398     2924.207    30.579918    232.66588 
  468000     266.6583    7704.7275     2924.207    34.997303     266.6583 
  469000    277.32068     12373.72     2924.207     34.05304    277.32068 
  470000     251.7945    8935.1183     2924.207    27.281259     251.7945 
  471000     285.7973    5679.1163     2924.207    24.645846     285.7973 
  472000    270.68413    9370.7621     2924.207    28.203051    270.68413 
  473000    264.55746    11959.497     2924.207    30.901809    264.55746 
  474000    272.99354    10690.547     2924.207    27.879351    272.99354 
  475000    278.21704    8665.7866     2924.207    22.706387    278.21704 
  476000    274.78116    10269.992     2924.207    23.674739    274.78116 
  477000     247.7004    5205.7355     2924.207    29.393196     247.7004 
  478000    273.54359    16652.578     2924.207    31.673828    273.54359 
  479000    242.36469    7482.6835     2924.207    29.580033    242.36469 
  480000    258.50479    11259.762     2924.207    27.657379    258.50479 
  481000    250.19473    11039.808     2924.207    31.288036    250.19473 
  482000    258.34652    11928.709     2924.207    33.920972    258.34652 
  483000    275.00965     7281.279     2924.207    31.890713    275.00965 
  484000    275.89029    12205.851     2924.207    28.289658    275.89029 
  485000    257.45793    4486.6176     2924.207    29.178398    257.45793 
  486000    247.77106    13741.764     2924.207    31.649666    247.77106 
  487000     274.3876     3778.529     2924.207    31.998519     274.3876 
  488000    252.99475    12417.371     2924.207     31.62939    252.99475 
  489000    262.12198    12848.395     2924.207    30.894759    262.12198 
  490000    251.78331    10889.732     2924.207    29.340096    251.78331 
  491000    253.13353    15393.439     2924.207    27.422762    253.13353 
  492000     271.7295    8545.3422     2924.207    28.501425     271.7295 
  493000    238.47996    8762.2136     2924.207    27.704185    238.47996 
  494000    280.53146    16532.478     2924.207    27.976191    280.53146 
  495000    254.63568    9825.0712     2924.207    27.191366    254.63568 
  496000    276.27009    8902.2367     2924.207    22.209245    276.27009 
  497000    242.95386    17021.164     2924.207     22.06279    242.95386 
  498000    277.02226    5270.4615     2924.207    23.067769    277.02226 
  499000    243.97606    12730.946     2924.207    23.024067    243.97606 
  500000    273.79147     16363.12     2924.207    25.767041    273.79147 
  501000    263.19928    2181.5625     2924.207    28.676389    263.19928 
  502000    254.28771    8726.9761     2924.207    31.257398    254.28771 
  503000    266.11657    16770.444     2924.207    34.476271    266.11657 
  504000    235.60095    7085.9914     2924.207    34.951788    235.60095 
  505000    259.72147    13698.977     2924.207    31.454281    259.72147 
  506000    265.63336     4895.637     2924.207    30.722559    265.63336 
  507000    256.59199    19565.923     2924.207    31.890349    256.59199 
  508000     256.1126    8817.7607     2924.207    32.521443     256.1126 
  509000    261.93043    7011.0993     2924.207    33.387295    261.93043 
  510000    246.15793    11470.866     2924.207    34.084759    246.15793 
  511000    259.43735    10711.492     2924.207    33.579628    259.43735 
  512000     282.9667    10115.732     2924.207    30.614081     282.9667 
  513000    252.07975     14760.49     2924.207    28.171835    252.07975 
  514000    267.95803    14224.772     2924.207    28.788474    267.95803 
  515000    270.81134    6614.8591     2924.207    32.115253    270.81134 
  516000    270.33704    14656.389     2924.207    34.547551    270.33704 
  517000    253.11103    8929.1687     2924.207    35.862678    253.11103 
  518000    270.81151    8715.6415     2924.207      34.3851    270.81151 
  519000    246.58402    11487.964     2924.207     33.75395    246.58402 
  520000    264.15532    6253.9132     2924.207    32.920835    264.15532 
  521000    251.36864    17207.642     2924.207    29.911637    251.36864 
  522000    272.27506    10609.034     2924.207    26.484064    272.27506 
  523000    248.75087    13060.499     2924.207    24.923536    248.75087 
  524000    249.17274    12456.244     2924.207    25.404497    249.17274 
  525000    258.50938    7083.0054     2924.207    24.060085    258.50938 
  526000    280.83395    6282.4342     2924.207    22.912074    280.83395 
  527000    234.32569     11380.57     2924.207    22.983683    234.32569 
  528000    265.76537    15591.634     2924.207    25.041115    265.76537 
  529000    268.58121    5323.0758     2924.207    25.874277    268.58121 
  530000    265.58331    4158.2859     2924.207    25.253717    265.58331 
  531000    260.02796    13139.578     2924.207     24.91866    260.02796 
  532000    270.68471    8696.2828     2924.207    26.064631    270.68471 
  533000    254.54514     2922.722     2924.207    26.371318    254.54514 
  534000    239.09414    21463.112     2924.207    23.781694    239.09414 
  535000    270.72264    2888.3331     2924.207    20.160852    270.72264 
  536000    259.12636    7758.4503     2924.207    18.981766    259.12636 
  537000    264.73665    21369.925     2924.207    18.006805    264.73665 
  538000    265.12948   -1058.1263     2924.207    20.523045    265.12948 
  539000    255.31682    11920.995     2924.207    21.778283    255.31682 
  540000    262.40537    14664.413     2924.207     23.93583    262.40537 
  541000    251.79217    4178.0067     2924.207    26.240459    251.79217 
  542000    272.22001    11278.819     2924.207    24.819496    272.22001 
  543000    254.85112    16614.119     2924.207    25.717582    254.85112 
  544000    258.89579    4947.7311     2924.207    26.354439    258.89579 
  545000    275.05711    8398.9832     2924.207    28.076604    275.05711 
  546000    253.64071    12703.509     2924.207    28.614136    253.64071 
  547000    259.86526    10127.491     2924.207    30.407262    259.86526 
  548000    247.92243    10049.027     2924.207     31.40287    247.92243 
  549000    266.00644    10195.156     2924.207     30.97932    266.00644 
  550000    263.78587    6238.6043     2924.207    31.336735    263.78587 
  551000    256.08739    11384.828     2924.207    30.956945    256.08739 
  552000    249.90505    13443.405     2924.207     30.29693    249.90505 
  553000    262.17586    6667.0083     2924.207    31.199752    262.17586 
  554000    277.17786    11333.048     2924.207    30.656782    277.17786 
  555000    248.21049    8847.4876     2924.207    27.246333    248.21049 
  556000    254.12663    11291.319     2924.207    24.894475    254.12663 
  557000     259.9158    5002.3375     2924.207    28.227887     259.9158 
  558000    261.75554    9420.2375     2924.207    31.423249    261.75554 
  559000    253.79228    9470.6237     2924.207    31.544086    253.79228 
  560000    270.97845    5478.0197     2924.207    32.524558    270.97845 
  561000    266.13328    14431.882     2924.207    31.444163    266.13328 
  562000     258.7329    9813.1123     2924.207    28.165184     258.7329 
  563000    258.39204    13318.412     2924.207    28.573104    258.39204 
  564000    260.68929    8573.1363     2924.207     31.58262    260.68929 
  565000    258.61113    12679.198     2924.207    31.403657    258.61113 
  566000    256.69256     10422.58     2924.207    30.206184    256.69256 
  567000    271.18034    709.53819     2924.207    26.475712    271.18034 
  568000    248.79003    8644.3238     2924.207    23.110678    248.79003 
  569000    264.23455    13727.569     2924.207    20.869148    264.23455 
  570000    252.76884    9139.2728     2924.207    21.384177    252.76884 
  571000    248.64364    9145.2852     2924.207     24.80351    248.64364 
  572000    257.71174    7520.4726     2924.207    28.814121    257.71174 
  573000    251.61686    14360.127     2924.207    31.398402    251.61686 
  574000    261.05745    8220.1504     2924.207    31.999314    261.05745 
  575000    255.67926    2553.7294     2924.207    30.971037    255.67926 
  576000    271.87772    9690.9083     2924.207    32.065621    271.87772 
  577000    271.50284    13374.089     2924.207    33.491904    271.50284 
  578000    267.61071    4335.7192     2924.207    32.902028    267.61071 
  579000    247.03286    11654.388     2924.207    29.049533    247.03286 
  580000    268.61501    15254.104     2924.207    26.202047    268.61501 
  581000     274.5855    5887.5222     2924.207    27.291843     274.5855 
  582000    269.01496    6651.6077     2924.207    30.849292    269.01496 
  583000    258.15687    14128.033     2924.207    31.423339    258.15687 
  584000    251.57779    11605.515     2924.207    31.184532    251.57779 
  585000     262.2537    8255.1592     2924.207    28.963969     262.2537 
  586000     278.5167    8852.4031     2924.207    27.805201     278.5167 
  587000    253.36106    10149.484     2924.207    25.486764    253.36106 
  588000    278.13809    4555.7524     2924.207    22.916485    278.13809 
  589000    276.51141     7500.797     2924.207    20.773058    276.51141 
  590000    253.21915    -578.2496     2924.207    21.084504    253.21915 
  591000    252.43652    18113.279     2924.207    21.350751    252.43652 
  592000    243.20803    6994.4548     2924.207    22.020784    243.20803 
  593000    256.32566     3287.673     2924.207    23.980238    256.32566 
  594000      243.193    9798.4505     2924.207    26.851641      243.193 
  595000    251.98325    13747.075     2924.207    29.046786    251.98325 
  596000    263.42673    8385.0904     2924.207    28.561676    263.42673 
  597000    253.17874    12594.029     2924.207    27.768815    253.17874 
  598000    270.81854    7826.5347     2924.207    29.364835    270.81854 
  599000    266.68003    6951.1451     2924.207     31.38595    266.68003 
  600000    249.96521    13176.282     2924.207     31.02957    249.96521 
  601000    261.64135    14188.736     2924.207    30.622153    261.64135 
  602000     246.8788    7842.2357     2924.207    30.630125     246.8788 
  603000    274.61073    11632.814     2924.207    31.480522    274.61073 
  604000    258.30152     10045.03     2924.207    31.898786    258.30152 
  605000    272.27585    14812.314     2924.207    32.538962    272.27585 
  606000    269.36862    7379.7027     2924.207    32.506522    269.36862 
  607000    249.70353     7384.609     2924.207    31.438053    249.70353 
  608000    265.09833    13031.803     2924.207    31.517269    265.09833 
  609000    268.20721    6254.5972     2924.207    32.569607    268.20721 
  610000    251.81157    6500.2269     2924.207    32.543499    251.81157 
  611000    254.95124    8059.6502     2924.207    33.469618    254.95124 
  612000    254.09819    11740.745     2924.207    34.208597    254.09819 
  613000    239.98765    5673.5208     2924.207    33.005296    239.98765 
  614000     271.8069    8831.3242     2924.207    30.620493     271.8069 
  615000    254.50907     7894.005     2924.207    29.145429    254.50907 
  616000    247.50238    11527.582     2924.207    27.620105    247.50238 
  617000    266.77919    5211.3238     2924.207    27.152597    266.77919 
  618000    264.35582    11291.425     2924.207    28.887513    264.35582 
  619000    262.06641    7251.6354     2924.207    32.039273    262.06641 
  620000    249.76244    10101.952     2924.207     34.97853    249.76244 
  621000    255.06469    14923.582     2924.207    34.996247    255.06469 
  622000    260.74276    5217.0995     2924.207    33.585203    260.74276 
  623000    275.40921    12019.921     2924.207     32.45875    275.40921 
  624000     255.3052    5201.3062     2924.207    33.666197     255.3052 
  625000    267.00012    12697.148     2924.207     34.68393    267.00012 
  626000    255.08243    7875.8509     2924.207    34.416183    255.08243 
  627000    260.88267    11839.551     2924.207    33.849734    260.88267 
  628000    262.03606    5836.1757     2924.207    32.538363    262.03606 
  629000     266.0976    10755.761     2924.207    31.042612     266.0976 
  630000    267.92699    7143.6268     2924.207    32.075738    267.92699 
  631000    252.80295    5993.0674     2924.207    33.579181    252.80295 
  632000    272.69415    12478.792     2924.207    34.333379    272.69415 
  633000     267.5373    7420.8253     2924.207    34.735988     267.5373 
  634000    251.68588    8280.6598     2924.207    34.683298    251.68588 
  635000    253.80166    7159.3052     2924.207    34.321445    253.80166 
  636000     251.2253    8874.8336     2924.207    31.610845     251.2253 
  637000    256.19782     9702.259     2924.207    30.612532    256.19782 
  638000    272.02837    7987.8993     2924.207    29.192725    272.02837 
  639000    245.04101    11496.795     2924.207    28.375461    245.04101 
  640000    260.49836    4802.8005     2924.207    28.654416    260.49836 
  641000    243.53495    7262.4175     2924.207    27.455149    243.53495 
  642000    240.31884    15534.016     2924.207    24.664619    240.31884 
  643000    254.32323    9672.1021     2924.207    22.750221    254.32323 
  644000    259.07364     1029.181     2924.207    22.318145    259.07364 
  645000    258.27541    16305.973     2924.207     23.94176    258.27541 
  646000    251.23179    4295.0506     2924.207    25.595452    251.23179 
  647000     266.0963    7480.6079     2924.207    27.385091     266.0963 
  648000    261.63692    7398.8803     2924.207    26.375325    261.63692 
  649000    267.30106     5669.364     2924.207    26.793671    267.30106 
  650000    243.48927    4134.0217     2924.207    28.877678    243.48927 
  651000    260.17484    8811.5848     2924.207     30.97321    260.17484 
  652000    264.40553    7015.2645     2924.207    31.406466    264.40553 
  653000    257.71182    12050.179     2924.207    30.172997    257.71182 
  654000     264.2314    4546.7884     2924.207     27.42452     264.2314 
  655000    241.35006     14854.12     2924.207    24.605451    241.35006 
  656000    271.32966    3306.7564     2924.207    22.212737    271.32966 
  657000    266.54016    13410.239     2924.207    21.765389    266.54016 
  658000    251.08694    11109.704     2924.207    22.432873    251.08694 
  659000    259.47015    803.17009     2924.207    22.367858    259.47015 
  660000    266.70223     13737.62     2924.207    22.041955    266.70223 
  661000    256.11284    9944.8387     2924.207    22.705689    256.11284 
  662000    278.63793     8496.204     2924.207    25.074814    278.63793 
  663000    272.62756    9288.3198     2924.207    26.216806    272.62756 
  664000    264.28062    7573.5466     2924.207     27.84578    264.28062 
  665000    269.54442    8654.3053     2924.207    28.225621    269.54442 
  666000       266.84    16191.257     2924.207    28.426248       266.84 
  667000    244.92321   -371.20146     2924.207    27.790988    244.92321 
  668000     270.9719    12495.279     2924.207    28.400642     270.9719 
  669000    261.78506    10831.727     2924.207    29.450552    261.78506 
  670000      245.827     2893.406     2924.207    31.769274      245.827 
  671000    281.85639    6989.0188     2924.207    32.657029    281.85639 
  672000    239.01056    6674.8731     2924.207    32.031936    239.01056 
  673000    260.38222    11097.801     2924.207    29.403747    260.38222 
  674000    259.98999    5381.5161     2924.207    25.457238    259.98999 
  675000    249.64456    10391.386     2924.207     21.16016    249.64456 
  676000    257.04959    12052.713     2924.207    20.215706    257.04959 
  677000      272.485    9916.3947     2924.207    20.270369      272.485 
  678000    242.20928    3508.0808     2924.207    19.585085    242.20928 
  679000    272.56631    9717.4656     2924.207     20.41702    272.56631 
  680000    245.35685    5364.1082     2924.207    24.657599    245.35685 
  681000    254.95906     11475.69     2924.207    27.060589    254.95906 
  682000    262.73067    2289.1881     2924.207    28.507662    262.73067 
  683000    266.17697    11376.595     2924.207    30.033815    266.17697 
  684000    256.50119    9065.8925     2924.207    31.109194    256.50119 
  685000    262.12706    7014.0967     2924.207    31.265196    262.12706 
  686000    249.41133    10824.371     2924.207    31.424441    249.41133 
  687000    257.52662    6538.0842     2924.207    31.965502    257.52662 
  688000     245.8786    4950.4506     2924.207    31.121825     245.8786 
  689000     248.6933    14405.654     2924.207    27.596989     248.6933 
  690000    256.28554    8725.0487     2924.207    24.930978    256.28554 
  691000    249.15996    4900.4379     2924.207    20.412016    249.15996 
  692000    259.11356    15121.515     2924.207    18.790546    259.11356 
  693000     253.3834    3720.1918     2924.207    19.435674     253.3834 
  694000    261.51435    8317.9107     2924.207    19.162141    261.51435 
  695000    281.05591    8380.0721     2924.207    19.366204    281.05591 
  696000    250.01999    9804.5746     2924.207    19.777066    250.01999 
  697000    235.42315    8126.7536     2924.207    22.013359    235.42315 
  698000     259.2098    3196.0256     2924.207      25.2257     259.2098 
  699000    264.79025    7374.8321     2924.207    27.276489    264.79025 
  700000     242.3905    12433.383     2924.207    29.669486     242.3905 
  701000    260.91457    2697.4065     2924.207    32.124734    260.91457 
  702000    240.75768    4743.3018     2924.207    32.191751    240.75768 
  703000    260.87245    17432.842     2924.207    29.792277    260.87245 
  704000    247.89827    6763.3095     2924.207    28.058361    247.89827 
  705000    243.90469    6154.5628     2924.207    28.444121    243.90469 
  706000    252.03471    11777.698     2924.207    30.904353    252.03471 
  707000    245.60052    7658.7574     2924.207    32.446291    245.60052 
  708000    268.69778    43.219926     2924.207    32.570484    268.69778 
  709000    244.85795    13275.258     2924.207    33.287805    244.85795 
  710000    252.64515    8686.7107     2924.207    31.676711    252.64515 
  711000     253.5094    8272.0359     2924.207    29.206451     253.5094 
  712000    255.09555    16363.534     2924.207     26.77987    255.09555 
  713000    259.68975    2893.2279     2924.207    25.920537    259.68975 
  714000    252.05552    5253.9591     2924.207    26.693798    252.05552 
  715000    248.40614    12690.734     2924.207    29.355084    248.40614 
  716000     267.4183    7268.7283     2924.207    31.040346     267.4183 
  717000     248.8122    10050.407     2924.207    31.516484     248.8122 
  718000    258.80274    5319.6355     2924.207    33.526367    258.80274 
  719000    254.26961    8536.2525     2924.207    35.175733    254.26961 
  720000    261.55142    5770.5801     2924.207    35.196854    261.55142 
  721000    257.70011    2899.4539     2924.207    34.276164    257.70011 
  722000     282.6229    17576.836     2924.207    34.313418     282.6229 
  723000    265.20046    13203.886     2924.207    35.183926    265.20046 
  724000    243.12728   -536.91991     2924.207     34.93117    243.12728 
  725000     265.4982      8694.47     2924.207    33.247898     265.4982 
  726000    249.69692    15041.231     2924.207    31.202331    249.69692 
  727000    253.93498    7800.6032     2924.207    28.832144    253.93498 
  728000    254.01753     6951.776     2924.207    26.900696    254.01753 
  729000    242.30412    13510.819     2924.207    26.960119    242.30412 
  730000    265.77075    9788.0721     2924.207    27.931678    265.77075 
  731000    254.30773    8148.4141     2924.207    28.694559    254.30773 
  732000    260.91233    8678.9767     2924.207    29.970331    260.91233 
  733000    264.04015    6870.7678     2924.207    31.295813    264.04015 
  734000    261.82155    3975.8108     2924.207    32.681737    261.82155 
  735000    260.86389    5793.3628     2924.207    31.975687    260.86389 
  736000    255.67095    10405.882     2924.207    32.012188    255.67095 
  737000    243.07033   -4933.0147     2924.207    31.296772    243.07033 
  738000    248.68886    13006.186     2924.207    30.967581    248.68886 
  739000     255.9243    20415.229     2924.207    30.419966     255.9243 
  740000    254.87174     718.9573     2924.207    29.719483    254.87174 
  741000    249.61111    6977.7621     2924.207    27.364711    249.61111 
  742000    264.33903    12093.135     2924.207    25.581356    264.33903 
  743000    257.70827   -1476.4898     2924.207    26.586981    257.70827 
  744000    267.22694    3832.1426     2924.207    29.081871    267.22694 
  745000    263.34155    8041.8325     2924.207     31.32903    263.34155 
  746000       268.86    6376.4009     2924.207    32.328247       268.86 
  747000    263.09716    9812.7657     2924.207    33.029911    263.09716 
  748000     266.2326    5398.5263     2924.207    32.131562     266.2326 
  749000    264.74524    2987.8534     2924.207    30.586871    264.74524 
  750000    276.77998    9469.5609     2924.207    27.391184    276.77998 
  751000    255.09429    13825.653     2924.207    25.953165    255.09429 
  752000    258.71854    4998.6964     2924.207    24.795655    258.71854 
  753000    255.03735    8102.6445     2924.207    27.084458    255.03735 
  754000    248.91791    10819.202     2924.207    28.693521    248.91791 
  755000    253.48988    5910.1362     2924.207    29.708636    253.48988 
  756000    258.10201    9201.6112     2924.207    31.246101    258.10201 
  757000    261.95547    4163.1692     2924.207    32.264804    261.95547 
  758000    260.38792    5285.7569     2924.207    31.675233    260.38792 
  759000    255.23546    14385.756     2924.207    30.268393    255.23546 
  760000    265.30812    11427.642     2924.207    27.417597    265.30812 
  761000    256.36659    1180.1529     2924.207    24.908885    256.36659 
  762000    248.42369    9992.2457     2924.207    24.791719    248.42369 
  763000    241.63838    9042.4175     2924.207    26.923502    241.63838 
  764000    262.05325    8893.2641     2924.207    27.919914    262.05325 
  765000    252.77785    7250.9662     2924.207    29.333908    252.77785 
  766000    253.35262     10179.39     2924.207    30.114468    253.35262 
  767000    273.58303    6400.9703     2924.207    32.191651    273.58303 
  768000    268.19393    10075.275     2924.207    32.544916    268.19393 
  769000    260.71719    4794.5781     2924.207     32.81346    260.71719 
  770000    270.25099    1773.9289     2924.207    32.845474    270.25099 
  771000    274.71702    14154.587     2924.207    31.672031    274.71702 
  772000    246.52582    2777.1226     2924.207    31.583862    246.52582 
  773000    261.39575    8685.4581     2924.207    31.470564    261.39575 
  774000    249.20084    8844.9646     2924.207    29.336635    249.20084 
  775000    249.52378    12177.939     2924.207     27.65176    249.52378 
  776000    258.20497    3322.5111     2924.207    28.079105    258.20497 
  777000    262.47705    6454.5696     2924.207    28.251829    262.47705 
  778000    262.35033    10255.388     2924.207    27.803279    262.35033 
  779000    263.15459     5865.366     2924.207    26.214849    263.15459 
  780000     274.2805    11163.318     2924.207    26.183153     274.2805 
  781000    255.26512    2023.5949     2924.207     24.92173    255.26512 
  782000    275.84701    3601.9775     2924.207    22.263427    275.84701 
  783000    248.27397    17783.085     2924.207    18.888096    248.27397 
  784000    259.31304    4746.2497     2924.207    18.995312    259.31304 
  785000    263.65002    2931.2408     2924.207    21.920818    263.65002 
  786000    264.53193    8434.6157     2924.207    24.138552    264.53193 
  787000    269.66422     9847.456     2924.207    25.758846    269.66422 
  788000    281.54473    4289.2877     2924.207    26.832556    281.54473 
  789000     263.1192    9064.6225     2924.207    28.309324     263.1192 
  790000    252.38443    9760.6201     2924.207    29.606124    252.38443 
  791000    254.22386    11044.105     2924.207    31.216114    254.22386 
  792000    268.71789    5402.1682     2924.207      32.0794    268.71789 
  793000    260.72036    8507.7137     2924.207    32.366797    260.72036 
  794000    253.04451    14721.372     2924.207    31.698379    253.04451 
  795000    259.47799    8580.9649     2924.207    30.537685    259.47799 
  796000    280.32115    1053.9892     2924.207    29.827912    280.32115 
  797000    257.42946    16465.382     2924.207    28.186759    257.42946 
  798000    252.80166    7055.3091     2924.207    27.573511    252.80166 
  799000    254.39467   -159.96266     2924.207    28.475102    254.39467 
  800000    255.87152    15304.874     2924.207    28.576065    255.87152 
  801000    253.41024    8984.8362     2924.207    29.171096    253.41024 
  802000    251.39713   -1394.7172     2924.207    29.471717    251.39713 
  803000    261.85099    6732.7577     2924.207     28.62398    261.85099 
  804000    252.40923    14835.435     2924.207    27.379056    252.40923 
  805000    255.82417    2957.3009     2924.207     27.76223    255.82417 
  806000    252.61013    16405.984     2924.207    28.424533    252.61013 
  807000    243.72371     6974.882     2924.207    29.195854    243.72371 
  808000    254.47255    1427.9889     2924.207    29.092356    254.47255 
  809000    252.36403     14689.34     2924.207    29.719273    252.36403 
  810000    258.97788    9367.7071     2924.207    29.691976    258.97788 
  811000      260.674    3625.4239     2924.207    29.969144      260.674 
  812000     249.3584    799.03554     2924.207    31.084615     249.3584 
  813000    255.18011    11427.215     2924.207    32.078939    255.18011 
  814000    255.48184    6330.2309     2924.207    33.726014    255.48184 
  815000      269.663    8312.8791     2924.207    35.364689      269.663 
  816000    262.51163    9117.7158     2924.207     36.24495    262.51163 
  817000    255.23635    9540.7955     2924.207    36.159408    255.23635 
  818000    259.27561    4703.4603     2924.207    35.697236    259.27561 
  819000    242.34063     8397.781     2924.207    33.969033    242.34063 
  820000    267.91778    7768.1227     2924.207      30.1604    267.91778 
  821000    271.18625    7754.9187     2924.207    25.561554    271.18625 
  822000    253.05334    7038.0513     2924.207    24.016941    253.05334 
  823000    263.78043    3489.0638     2924.207    25.144656    263.78043 
  824000    254.81604    12764.004     2924.207    25.991639    254.81604 
  825000    255.98024    2544.8478     2924.207     24.70024    255.98024 
  826000    233.53228    7248.3846     2924.207    22.539719    233.53228 
  827000    261.15475    7078.5214     2924.207    21.148071    261.15475 
  828000    276.99004    11936.896     2924.207    23.510395    276.99004 
  829000    259.63593    2153.7176     2924.207    26.392866    259.63593 
  830000    253.73549    10973.863     2924.207     28.63553    253.73549 
  831000    255.85178    9954.8123     2924.207    29.584243    255.85178 
  832000    258.42369    2910.3088     2924.207    27.816668    258.42369 
  833000    277.53616    9944.5816     2924.207    25.014525    277.53616 
  834000    257.03534    4951.9312     2924.207    20.240921    257.03534 
  835000     279.1202     8757.749     2924.207    15.086988     279.1202 
  836000     246.3473    9395.1816     2924.207    13.688996     246.3473 
  837000    249.23683    3319.3868     2924.207    14.455966    249.23683 
  838000    261.93446    6691.5716     2924.207    17.071983    261.93446 
  839000    254.31301    11529.455     2924.207    19.300921    254.31301 
  840000    247.78357    1099.5748     2924.207    24.794806    247.78357 
  841000    254.92159    11699.815     2924.207    29.213643    254.92159 
  842000    262.71697    10080.011     2924.207    31.945216    262.71697 
  843000    257.03549   -2843.9652     2924.207    31.421067    257.03549 
  844000     263.1043    7066.7699     2924.207    30.586966     263.1043 
  845000    267.40708    10513.116     2924.207    30.284554    267.40708 
  846000     273.4813    5578.4586     2924.207    30.014916     273.4813 
  847000     248.6925    2214.9131     2924.207     28.52898     248.6925 
  848000    251.15865    6109.9434     2924.207    28.198695    251.15865 
  849000    257.21493    10177.453     2924.207    30.476515    257.21493 
  850000    276.32464   -2073.4328     2924.207    33.740448    276.32464 
  851000    251.88318    9101.0383     2924.207    34.559161    251.88318 
  852000    264.83433    13835.699     2924.207    34.046761    264.83433 
  853000    250.97008    4709.9906     2924.207    32.775912    250.97008 
  854000    240.42174    5748.0224     2924.207    30.823138    240.42174 
  855000    267.72291    14210.645     2924.207    28.728612    267.72291 
  856000    260.69391   -58.926559     2924.207    28.203845    260.69391 
  857000    259.23964    6465.4658     2924.207     29.82796    259.23964 
  858000    273.46701    259.81463     2924.207    32.805565    273.46701 
  859000    272.23205    15243.433     2924.207    34.241419    272.23205 
  860000    276.90247     8580.345     2924.207    33.335073    276.90247 
  861000    269.42435    6697.6355     2924.207    29.940367    269.42435 
  862000    272.19775    7010.6447     2924.207    25.081668    272.19775 
  863000    267.89655    7838.6938     2924.207    20.514616    267.89655 
  864000    252.45358    9017.2779     2924.207    18.758521    252.45358 
  865000    252.55431    4445.3761     2924.207    17.342927    252.55431 
  866000    250.65249    8792.7966     2924.207    17.173775    250.65249 
  867000    264.40008    5470.4592     2924.207    18.298989    264.40008 
  868000    281.38148    9404.0416     2924.207    22.798459    281.38148 
  869000    264.61836    7724.8684     2924.207    27.517673    264.61836 
  870000    267.17551    3668.5525     2924.207    29.171473    267.17551 
  871000    249.45551    8897.7813     2924.207    29.369378    249.45551 
  872000    269.62846    3258.3549     2924.207     28.82417    269.62846 
  873000    255.93092    7590.4736     2924.207    27.434359    255.93092 
  874000    253.99618    6473.6818     2924.207    27.107587    253.99618 
  875000    255.45907    2971.7563     2924.207    28.048583    255.45907 
  876000    251.10456    11679.445     2924.207    29.039271    251.10456 
  877000    261.00392    7072.4302     2924.207    29.280827    261.00392 
  878000    249.84543     7567.504     2924.207    29.848394    249.84543 
  879000     250.7075    6871.7676     2924.207     29.84741     250.7075 
  880000     244.4219    8551.7578     2924.207    30.832027     244.4219 
  881000    243.04323    2025.7435     2924.207    32.702954    243.04323 
  882000    248.48913    4724.5874     2924.207    33.455121    248.48913 
  883000    247.25534    10080.091     2924.207    32.734322    247.25534 
  884000    255.54684    4213.3822     2924.207    30.379937    255.54684 
  885000    260.65268    12257.922     2924.207    27.164177    260.65268 
  886000    256.87598    7425.0623     2924.207    27.460339    256.87598 
  887000    235.06157    4021.0903     2924.207    27.747419    235.06157 
  888000    250.66818    5129.0386     2924.207    27.556607    250.66818 
  889000    250.90406    3209.7183     2924.207     27.00668    250.90406 
  890000    251.21239    10425.245     2924.207    25.762751    251.21239 
  891000    244.72914    6286.8272     2924.207    25.469279    244.72914 
  892000    255.57721    5233.8957     2924.207    23.189688    255.57721 
  893000    265.91267    11372.606     2924.207    22.293011    265.91267 
  894000    267.88656    9657.0011     2924.207    23.045307    267.88656 
  895000    249.62251    2456.0383     2924.207    23.559923    249.62251 
  896000    248.70531    7488.0512     2924.207    24.337239    248.70531 
  897000    256.36736    4289.1747     2924.207     24.10609    256.36736 
  898000    251.04994    6704.5841     2924.207    23.868623    251.04994 
  899000     248.3214    7862.3126     2924.207    24.248189     248.3214 
  900000    258.73591    5379.1455     2924.207    24.620381    258.73591 
  901000     245.7482    6782.7325     2924.207    26.145274     245.7482 
  902000     264.6531     13480.03     2924.207    29.015888     264.6531 
  903000    264.30936    2646.3891     2924.207    32.080774    264.30936 
  904000    254.47346    7719.3684     2924.207    33.363661    254.47346 
  905000    257.19972    12177.863     2924.207    34.247932    257.19972 
  906000    248.44931    5662.5584     2924.207    34.473137    248.44931 
  907000    253.29238    5571.8029     2924.207    34.147192    253.29238 
  908000    264.74109    3773.8651     2924.207    34.432591    264.74109 
  909000    264.07168    10588.922     2924.207    34.484002    264.07168 
  910000    267.01717    10345.473     2924.207    33.580176    267.01717 
  911000    258.09737   -314.80463     2924.207    31.829508    258.09737 
  912000     262.4607    12165.102     2924.207    28.887083     262.4607 
  913000    266.22139    13564.521     2924.207    25.733309    266.22139 
  914000    249.77028    6324.8918     2924.207    25.127625    249.77028 
  915000      259.535    3391.0524     2924.207    25.823173      259.535 
  916000    280.47198    5491.7348     2924.207    26.187286    280.47198 
  917000    261.02696    10482.993     2924.207    25.682668    261.02696 
  918000    258.87247    6658.9216     2924.207    26.690832    258.87247 
  919000    276.22274    11967.102     2924.207    26.855794    276.22274 
  920000    264.21706     2925.889     2924.207    27.439506    264.21706 
  921000    277.86996    6966.2542     2924.207    26.569269    277.86996 
  922000    262.34161    10449.891     2924.207    24.112076    262.34161 
  923000    259.63242   -1744.8069     2924.207    23.642925    259.63242 
  924000    252.89985    3633.7429     2924.207    24.836342    252.89985 
  925000    264.63867    14486.395     2924.207    26.829882    264.63867 
  926000    259.51145    2014.8319     2924.207    28.472581    259.51145 
  927000    252.22341     2374.995     2924.207    29.237407    252.22341 
  928000    239.99362    9917.3024     2924.207    29.472287    239.99362 
  929000    272.71174     3387.093     2924.207    28.701119    272.71174 
  930000    255.67027    5689.1107     2924.207    26.299745    255.67027 
  931000    261.40777    15474.683     2924.207    24.306212    261.40777 
  932000    274.23797   -3138.3044     2924.207    24.342909    274.23797 
  933000    254.09272     8823.886     2924.207    27.029255    254.09272 
  934000    269.87582    10211.661     2924.207    31.432108    269.87582 
  935000    251.57921    2232.3375     2924.207    33.955578    251.57921 
  936000    251.40552    7065.7188     2924.207    34.991921    251.40552 
  937000    263.20653    18336.685     2924.207    33.700363    263.20653 
  938000    265.25096   -1774.6916     2924.207    31.639451    265.25096 
  939000    255.11003   -1350.8027     2924.207    27.021945    255.11003 
  940000    252.36125    14427.035     2924.207    22.495204    252.36125 
  941000     270.5929    13563.223     2924.207    20.127042     270.5929 
  942000    249.94326   -3103.5902     2924.207    20.173977    249.94326 
  943000    245.90022    1631.0851     2924.207    21.059447    245.90022 
  944000    241.98825    17369.762     2924.207    21.901298    241.98825 
  945000    257.79184    4628.2695     2924.207    24.838115    257.79184 
  946000    259.35294    8046.2575     2924.207    27.620287    259.35294 
  947000    258.96548    11823.252     2924.207    28.509645    258.96548 
  948000    266.61179    884.75518     2924.207    27.324122    266.61179 
  949000    260.56226    5135.6187     2924.207    26.715629    260.56226 
  950000    267.00477    6883.4692     2924.207    26.142547    267.00477 
  951000    253.36002    11129.163     2924.207    24.719178    253.36002 
  952000    259.32939    9419.7195     2924.207    23.551296    259.32939 
  953000    258.09786    5205.4435     2924.207    24.722053    258.09786 
  954000    276.87761    8322.7495     2924.207     26.43982    276.87761 
  955000    246.53768     3429.814     2924.207    28.246913    246.53768 
  956000    258.57531      876.333     2924.207    29.005776    258.57531 
  957000    262.83159    1849.2557     2924.207    29.929428    262.83159 
  958000    237.55448    4961.6861     2924.207    31.324944    237.55448 
  959000    259.40307    14578.117     2924.207    31.525861    259.40307 
  960000    271.24802    9170.5334     2924.207    29.927863    271.24802 
  961000    257.44156   -1061.0036     2924.207    28.319065    257.44156 
  962000     249.9083    6936.2624     2924.207    25.750495     249.9083 
  963000    257.55086    9418.6986     2924.207    25.047428    257.55086 
  964000    242.84719    2931.4977     2924.207     25.00799    242.84719 
  965000    274.77503    7560.4541     2924.207    24.824936    274.77503 
  966000    255.20578    6545.9491     2924.207    24.630556    255.20578 
  967000    253.08795    12104.923     2924.207    25.650724    253.08795 
  968000    247.30219    113.91865     2924.207    27.140299    247.30219 
  969000    266.56008    3722.7557     2924.207    29.217774    266.56008 
  970000    248.81465    17138.015     2924.207    31.749215    248.81465 
  971000    252.75647    3515.3943     2924.207    33.766144    252.75647 
  972000    267.65029    3537.7657     2924.207    33.274309    267.65029 
  973000    244.44377    1536.6187     2924.207    32.026126    244.44377 
  974000    272.93668    5886.3035     2924.207     29.59552    272.93668 
  975000    260.78304    7092.0943     2924.207    26.877809    260.78304 
  976000    250.59183    7881.1868     2924.207    26.360377    250.59183 
  977000     267.8084    2070.6101     2924.207    26.337604     267.8084 
  978000    264.02431    4930.3936     2924.207    25.029123    264.02431 
  979000     255.1412    8913.6575     2924.207    24.900639     255.1412 
  980000    249.63549    9855.0541     2924.207     27.56928    249.63549 
  981000    239.78265   -909.20422     2924.207     28.61003    239.78265 
  982000    264.59539    8717.2368     2924.207    29.288311    264.59539 
  983000    250.14849    5054.3936     2924.207    29.738626    250.14849 
  984000    260.18306    3423.8531     2924.207    30.943829    260.18306 
  985000    261.21509    11544.285     2924.207    31.641146    261.21509 
  986000     266.6541    6380.4428     2924.207    31.406048     266.6541 
  987000    267.50834    7263.8801     2924.207    29.726954    267.50834 
  988000    248.88764    1549.1268     2924.207    28.352227    248.88764 
  989000    256.92723    9527.5546     2924.207    27.104465    256.92723 
  990000    262.62713    12864.069     2924.207    24.129677    262.62713 
  991000    275.28775    2441.6351     2924.207    23.280218    275.28775 
  992000    258.06343    98.973442     2924.207    22.467559    258.06343 
  993000    256.33395    13700.064     2924.207    22.189094    256.33395 
  994000    274.79801    5375.6635     2924.207    23.939315    274.79801 
  995000     254.4675    1431.2667     2924.207    23.743742     254.4675 
  996000    235.99027    11969.016     2924.207    21.798392    235.99027 
  997000    259.14307    16303.566     2924.207    21.884863    259.14307 
  998000    258.07407   -2712.5799     2924.207    23.071365    258.07407 
  999000    251.17745    5595.1821     2924.207    23.807293    251.17745 
 1000000    245.73549     16369.38     2924.207    23.812698    245.73549 
 1001000    245.53795    5858.4898     2924.207    24.560878    245.53795 
 1002000    265.57324   -2074.8882     2924.207    24.840807    265.57324 
 1003000     244.5449    4007.1031     2924.207    25.651806     244.5449 
 1004000    244.30905    14107.911     2924.207    26.936155    244.30905 
 1005000    241.14139    5806.1228     2924.207    26.822478    241.14139 
 1006000    269.93389   -553.17073     2924.207    25.991571    269.93389 
 1007000    255.59244    8792.3038     2924.207    25.372737    255.59244 
 1008000    236.80722    13361.503     2924.207    25.697694    236.80722 
 1009000    250.02691    2688.5844     2924.207    25.852581    250.02691 
 1010000     264.4976    7671.8558     2924.207    25.904814     264.4976 
 1011000    259.85299     7895.895     2924.207     25.89505    259.85299 
 1012000    274.92359    8105.3188     2924.207    27.122709    274.92359 
 1013000    248.72504    12093.369     2924.207    29.134588    248.72504 
 1014000    253.13288    616.30998     2924.207    32.232124    253.13288 
 1015000     270.4777    817.03303     2924.207    33.473526     270.4777 
 1016000    255.68317    11005.504     2924.207    33.780433    255.68317 
 1017000    265.42453    8641.7543     2924.207    33.248296    265.42453 
 1018000     251.6709    333.04144     2924.207    33.441842     251.6709 
 1019000    254.47437    9213.7357     2924.207    33.628324    254.47437 
 1020000    263.74076    8407.1317     2924.207     34.83387    263.74076 
 1021000    249.65114   -952.53156     2924.207    35.562156    249.65114 
 1022000    253.24362     5004.707     2924.207    35.939658    253.24362 
 1023000    268.19856     7945.567     2924.207    35.868921    268.19856 
 1024000    275.33511    6867.1943     2924.207    35.414851    275.33511 
 1025000    260.31449    7919.2834     2924.207     34.99159    260.31449 
 1026000    264.81603    5869.2284     2924.207    34.248029    264.81603 
 1027000    250.41773    4253.7761     2924.207    33.113319    250.41773 
 1028000    262.05574     5574.383     2924.207    31.318914    262.05574 
 1029000    245.41385    5828.1104     2924.207    28.750357    245.41385 
 1030000    258.39806    2316.6995     2924.207    27.538991    258.39806 
 1031000    264.73312    11625.371     2924.207    26.721088    264.73312 
 1032000    260.30659    8871.4256     2924.207    25.363502    260.30659 
 1033000    234.27619   -1340.9244     2924.207    24.179753    234.27619 
 1034000    254.41897    4273.2915     2924.207    22.875908    254.41897 
 1035000     247.6249    12237.362     2924.207    22.285661     247.6249 
 1036000    244.60145    6269.9503     2924.207    22.329468    244.60145 
 1037000      254.278    4168.0002     2924.207    23.210163      254.278 
 1038000    271.06383    12791.716     2924.207    25.170742    271.06383 
 1039000    269.22204    2559.9319     2924.207    27.540821    269.22204 
 1040000    265.69201    4362.4167     2924.207    27.487333    265.69201 
 1041000    270.95241    11969.847     2924.207    27.484285    270.95241 
 1042000    236.93847   -2572.9007     2924.207    29.073671    236.93847 
 1043000    243.68345    6168.3201     2924.207    31.898713    243.68345 
 1044000    273.58901    9463.5377     2924.207    33.322285    273.58901 
 1045000      264.518    4661.5494     2924.207    33.688593      264.518 
 1046000    251.43747    1694.4641     2924.207    34.801504    251.43747 
 1047000     255.8648    12486.461     2924.207    34.744785     255.8648 
 1048000    270.66045    8680.7633     2924.207    34.247691    270.66045 
 1049000     237.6149    6810.3122     2924.207    33.910813     237.6149 
 1050000    251.12478    6766.5382     2924.207    34.431151    251.12478 
 1051000    242.04346     4795.989     2924.207    33.560828    242.04346 
 1052000    247.65243    1902.7971     2924.207    33.149234    247.65243 
 1053000    249.84614    10984.383     2924.207    30.446068    249.84614 
 1054000    255.24016    2134.0251     2924.207    29.018519    255.24016 
 1055000    264.69158    5819.0678     2924.207    28.372952    264.69158 
 1056000    254.65402    9369.9862     2924.207    28.798255    254.65402 
 1057000    260.35965     3714.617     2924.207    30.205331    260.35965 
 1058000    258.33297    4656.3957     2924.207    30.580136    258.33297 
 1059000    267.47465    7424.0397     2924.207    30.863315    267.47465 
 1060000    257.92413    6836.2801     2924.207    31.766959    257.92413 
 1061000    256.74401    8828.4809     2924.207    33.215781    256.74401 
 1062000    238.41903     2976.774     2924.207    32.258667    238.41903 
 1063000     254.2773     9536.272     2924.207    31.271852     254.2773 
 1064000    251.96319    7023.5626     2924.207    29.243412    251.96319 
 1065000    256.65555    4787.7952     2924.207    26.954212    256.65555 
 1066000    240.18365    10526.256     2924.207    27.052902    240.18365 
 1067000      266.049     5819.684     2924.207    27.262401      266.049 
 1068000    247.78927    387.29727     2924.207    26.946431    247.78927 
 1069000    255.65759    12196.761     2924.207    26.717526    255.65759 
 1070000    241.47697    14113.964     2924.207    27.550865    241.47697 
 1071000    280.17188    5124.1514     2924.207    27.857349    280.17188 
 1072000    248.86693    2934.7983     2924.207    28.639892    248.86693 
 1073000    249.51605    6379.9896     2924.207    29.570026    249.51605 
 1074000    258.43471    12917.784     2924.207    29.144807    258.43471 
 1075000     273.0323    2054.6983     2924.207    28.223066     273.0323 
 1076000    256.82814    10114.654     2924.207    28.763357    256.82814 
 1077000    261.05572    9207.6049     2924.207    30.595766    261.05572 
 1078000    240.66193     3019.864     2924.207    29.640752    240.66193 
 1079000    259.47996    5179.1296     2924.207     27.87356    259.47996 
 1080000    263.72535     6252.702     2924.207    24.850947    263.72535 
 1081000     262.1265    4516.8262     2924.207    24.522227     262.1265 
 1082000    258.94725    5068.7072     2924.207    23.959976    258.94725 
 1083000    272.03545    3738.4742     2924.207    24.164084    272.03545 
 1084000    248.30233    10681.263     2924.207     25.41148    248.30233 
 1085000    244.84618     1946.992     2924.207     27.28658    244.84618 
 1086000    262.69348     2630.912     2924.207    28.264782    262.69348 
 1087000    259.39537    14600.189     2924.207    27.533701    259.39537 
 1088000    246.21718    3129.7232     2924.207    26.500007    246.21718 
 1089000    246.48549    3135.6211     2924.207    25.901943    246.48549 
 1090000    243.66592    3400.4164     2924.207    26.532323    243.66592 
 1091000    247.76457     8420.764     2924.207    25.910426    247.76457 
 1092000    261.95421    6711.0745     2924.207    23.911858    261.95421 
 1093000    241.29578     3003.703     2924.207    23.365735    241.29578 
 1094000     274.2727    14854.871     2924.207    23.598269     274.2727 
 1095000    269.42422    2749.6529     2924.207    25.131262    269.42422 
 1096000     261.8845    3925.9815     2924.207    27.191053     261.8845 
 1097000    264.92114    9951.2778     2924.207    29.422235    264.92114 
 1098000    246.28783    4024.5469     2924.207    29.493946    246.28783 
 1099000    265.64779    7173.1855     2924.207    28.766911    265.64779 
 1100000    255.12555    8359.5695     2924.207    29.487809    255.12555 
 1101000     268.4454    5985.2323     2924.207    29.449715     268.4454 
 1102000    268.62803    6227.3526     2924.207    28.033324    268.62803 
 1103000    244.82595    8135.8623     2924.207    26.540022    244.82595 
 1104000    260.37685    8917.3043     2924.207    26.032485    260.37685 
 1105000     250.6294    4660.3088     2924.207    25.479668     250.6294 
 1106000    259.35359    5991.8744     2924.207    22.857675    259.35359 
 1107000    264.46995    9088.3237     2924.207    20.990943    264.46995 
 1108000    268.34182     4993.613     2924.207    21.364531    268.34182 
 1109000    255.43318    5508.3857     2924.207    21.439689    255.43318 
 1110000    269.13943    7925.5065     2924.207    19.113704    269.13943 
 1111000    249.71893    6070.7437     2924.207    16.803456    249.71893 
 1112000    257.43405    859.56121     2924.207    17.440324    257.43405 
 1113000    253.60633    9952.8146     2924.207    18.056065    253.60633 
 1114000    253.56606    11164.522     2924.207    20.299218    253.56606 
 1115000    246.20411    2998.3856     2924.207    22.876791    246.20411 
 1116000    251.82874    1150.8572     2924.207     26.28796    251.82874 
 1117000    245.09413    8542.1752     2924.207    29.448419    245.09413 
 1118000    263.73203     11999.59     2924.207    29.475555    263.73203 
 1119000    257.66024    5103.9867     2924.207    29.051992    257.66024 
 1120000    277.21678    7022.9856     2924.207    29.982867    277.21678 
 1121000    240.77513    7356.1938     2924.207     29.06263    240.77513 
 1122000    261.54967   -5759.9503     2924.207    29.647828    261.54967 
 1123000    266.64183    14588.507     2924.207     31.42052    266.64183 
 1124000    261.71123    19400.598     2924.207    33.119159    261.71123 
 1125000    259.06649   -6081.6367     2924.207    33.468574    259.06649 
 1126000    253.76427    735.55864     2924.207    33.795175    253.76427 
 1127000    251.48756    16200.153     2924.207    32.389025    251.48756 
 1128000    256.78273    12054.473     2924.207    31.762823    256.78273 
 1129000    250.97461   -2739.8441     2924.207    31.517157    250.97461 
 1130000     268.7844   -1721.2848     2924.207    32.328031     268.7844 
 1131000    255.05503    20648.327     2924.207     32.44554    255.05503 
 1132000    253.30857    8210.2779     2924.207    33.528302    253.30857 
 1133000     231.2542    872.63586     2924.207    34.357446     231.2542 
 1134000    252.44287    1643.9315     2924.207    33.738831    252.44287 
 1135000    250.26772    8957.2213     2924.207    29.932069    250.26772 
 1136000    244.91014    12559.514     2924.207    27.421925    244.91014 
 1137000    253.17049    11298.372     2924.207    24.829305    253.17049 
 1138000     236.0862    1735.2712     2924.207    21.441877     236.0862 
 1139000    260.05187   -2080.6583     2924.207    21.792662    260.05187 
 1140000    263.13731    10241.547     2924.207    22.892643    263.13731 
 1141000     262.4239     11726.34     2924.207    23.731024     262.4239 
 1142000    257.43206    2916.8478     2924.207    25.587726    257.43206 
 1143000    259.68105    2605.3397     2924.207    28.360596    259.68105 
 1144000    256.95464    12879.841     2924.207    30.458259    256.95464 
 1145000    240.06244    5443.5572     2924.207    31.193973    240.06244 
 1146000    257.26711     3398.127     2924.207    32.024726    257.26711 
 1147000    239.85159     9861.491     2924.207     31.63694    239.85159 
 1148000    244.56281     6637.587     2924.207    32.204682    244.56281 
 1149000    263.08502    2386.7059     2924.207    33.083818    263.08502 
 1150000     235.7502    12482.554     2924.207    31.681031     235.7502 
 1151000    231.54417    10153.181     2924.207    31.071253    231.54417 
 1152000    270.78806    2567.4592     2924.207     30.09784    270.78806 
 1153000     249.0785    1782.2986     2924.207    30.567697     249.0785 
 1154000    257.37015    8518.0052     2924.207    30.965371    257.37015 
 1155000    253.99331    9193.2158     2924.207    29.766611    253.99331 
 1156000    262.01385     3209.984     2924.207    28.255214    262.01385 
 1157000    236.76278    6402.9311     2924.207     25.21173    236.76278 
 1158000    270.16874    9834.8856     2924.207    21.778269    270.16874 
 1159000     232.4903    5014.5268     2924.207    22.588483     232.4903 
 1160000    245.49062     6568.184     2924.207    23.090326    245.49062 
 1161000    253.27494     8576.165     2924.207    22.496136    253.27494 
 1162000    247.98239    7311.1247     2924.207    22.883642    247.98239 
 1163000    255.90048     5750.096     2924.207    24.561423    255.90048 
 1164000    265.35181    7668.3388     2924.207    24.608522    265.35181 
 1165000    254.74894    1838.6764     2924.207    23.893599    254.74894 
 1166000    243.01192    11632.055     2924.207    25.295583    243.01192 
 1167000    259.80011    5586.1269     2924.207    26.935882    259.80011 
 1168000    249.51479    4222.5348     2924.207    26.746073    249.51479 
 1169000    253.00618    8612.4877     2924.207    25.290998    253.00618 
 1170000     257.7468    2836.3762     2924.207    24.037865     257.7468 
 1171000    252.92793    6867.3303     2924.207    25.747161    252.92793 
 1172000    250.80377    17855.948     2924.207    26.064351    250.80377 
 1173000    246.04135    3601.6467     2924.207     26.02547    246.04135 
 1174000    265.24287   -6003.2856     2924.207    24.290972    265.24287 
 1175000    271.78091    10711.755     2924.207    26.063904    271.78091 
 1176000     245.1858    17712.845     2924.207    27.209644     245.1858 
 1177000    247.04597    2488.0909     2924.207    25.575912    247.04597 
 1178000    239.40909   -6744.7373     2924.207    24.636782    239.40909 
 1179000    253.68092    12391.892     2924.207    25.699972    253.68092 
 1180000    261.90915    16536.218     2924.207    26.801688    261.90915 
 1181000    266.91677     1914.249     2924.207    27.495087    266.91677 
 1182000    262.03953    5220.8788     2924.207    27.471652    262.03953 
 1183000    232.19776    11207.566     2924.207    28.335255    232.19776 
 1184000    238.46175    4754.6232     2924.207    27.781122    238.46175 
 1185000    275.08343   -1505.5632     2924.207    26.964396    275.08343 
 1186000    252.52012    9685.8355     2924.207    27.939334    252.52012 
 1187000    263.83716    7131.2074     2924.207    27.417166    263.83716 
 1188000    248.90714    3944.5135     2924.207    25.276782    248.90714 
 1189000    258.18679     5224.227     2924.207    24.514654    258.18679 
 1190000    263.84954    11125.709     2924.207    25.313412    263.84954 
 1191000     256.8159    5801.7853     2924.207    26.408602     256.8159 
 1192000    257.05553    2552.2538     2924.207    28.365582    257.05553 
 1193000    253.35106    2648.7027     2924.207    30.014036    253.35106 
 1194000     251.4782    8671.7393     2924.207    30.637482     251.4782 
 1195000    245.59228    10118.521     2924.207    31.143481    245.59228 
 1196000    232.28717     3288.896     2924.207    30.463651    232.28717 
 1197000    256.31289    6012.0293     2924.207     30.75365    256.31289 
 1198000     265.0776    5595.8682     2924.207    31.449071     265.0776 
 1199000    237.14229    2330.0724     2924.207    30.501522    237.14229 
 1200000    239.50686     10950.74     2924.207    29.589788    239.50686 
 1201000    257.33755    5909.5631     2924.207    28.628998    257.33755 
 1202000    267.71852    2817.4025     2924.207     29.45643    267.71852 
 1203000    257.72522    3303.0327     2924.207    29.570836    257.72522 
 1204000    262.06159    11346.165     2924.207    29.515662    262.06159 
 1205000    258.02229    6651.3935     2924.207    30.126628    258.02229 
 1206000    242.51003     2612.526     2924.207    30.838269    242.51003 
 1207000    248.28875    8525.5196     2924.207    31.462829    248.28875 
 1208000    266.07201    14185.047     2924.207    32.393592    266.07201 
 1209000    246.73304    320.80256     2924.207    33.082536    246.73304 
 1210000    248.87846   -802.24728     2924.207    33.589232    248.87846 
 1211000    250.87242    2540.2849     2924.207    33.398373    250.87242 
 1212000    244.44771    17938.721     2924.207    33.314718    244.44771 
 1213000    256.09432     6984.087     2924.207    32.475492    256.09432 
 1214000    263.33236   -94.001102     2924.207    32.566499    263.33236 
 1215000    255.33892     3306.784     2924.207    32.827331    255.33892 
 1216000    254.91529    19127.684     2924.207    32.156454    254.91529 
 1217000    248.79371    7220.3633     2924.207    31.589001    248.79371 
 1218000    254.61483   -1841.3714     2924.207    30.692575    254.61483 
 1219000    268.02609    7817.4931     2924.207    29.966995    268.02609 
 1220000    243.78729    8987.4691     2924.207    28.083576    243.78729 
 1221000    259.75732    7690.3907     2924.207    28.975177    259.75732 
 1222000    255.87823    80.257673     2924.207    29.081855    255.87823 
 1223000    240.96226    8786.4726     2924.207    29.316339    240.96226 
 1224000    263.95327    6954.7215     2924.207    28.513592    263.95327 
 1225000    258.00312    9093.8922     2924.207    28.534855    258.00312 
 1226000    240.61581    8434.9875     2924.207    27.985256    240.61581 
 1227000    245.32935   -1734.5127     2924.207    27.070092    245.32935 
 1228000    254.14451    7089.5886     2924.207    27.189297    254.14451 
 1229000    254.24754    14005.451     2924.207    28.021289    254.24754 
 1230000    260.72193    3915.5091     2924.207    28.212281    260.72193 
 1231000    249.71075    2102.8481     2924.207    26.991903    249.71075 
 1232000    260.16741    14758.635     2924.207    27.042678    260.16741 
 1233000    269.48783    13570.593     2924.207    26.328592    269.48783 
 1234000    258.10724   -5513.0162     2924.207    24.758496    258.10724 
 1235000    249.92978    1629.6761     2924.207    21.931523    249.92978 
 1236000    252.34688    11108.221     2924.207    21.564809    252.34688 
 1237000    250.18341    4630.1909     2924.207    21.318951    250.18341 
 1238000    250.45554     4941.257     2924.207    21.805766    250.45554 
 1239000    247.58316    7585.7088     2924.207    22.212142    247.58316 
 1240000    251.19188    12903.563     2924.207    24.635185    251.19188 
 1241000    267.37846    3294.2053     2924.207    26.054813    267.37846 
 1242000    246.95735    1906.5197     2924.207    26.415033    246.95735 
 1243000    266.13329    4761.1993     2924.207    26.759858    266.13329 
 1244000    263.54932    11255.324     2924.207    25.783913    263.54932 
 1245000    258.62894    5398.6019     2924.207    26.875461    258.62894 
 1246000    249.55609    -1276.583     2924.207    26.418057    249.55609 
 1247000    254.97394    7769.8318     2924.207    25.297781    254.97394 
 1248000    252.50139    11914.876     2924.207    25.664302    252.50139 
 1249000    245.29064   -91.260385     2924.207    25.945521    245.29064 
 1250000    253.59216    9051.2615     2924.207     26.27537    253.59216 
 1251000    252.79995    11469.727     2924.207    25.967679    252.79995 
 1252000     260.1875    3797.5542     2924.207    26.409338     260.1875 
 1253000    263.32719    6854.6079     2924.207    26.736232    263.32719 
[...]
 1505000    259.27073    2360.0744     2924.207    28.146739    259.27073 
 1506000    248.57125    3704.6915     2924.207    27.005324    248.57125 
 1507000    262.59553    6730.9408     2924.207    26.724335    262.59553 
 1508000    260.39525    8873.5243     2924.207    27.150447    260.39525 
 1509000    269.34333    3648.5648     2924.207    27.383607    269.34333 
 1510000    257.00328    1714.8817     2924.207    26.999727    257.00328 
 1511000    239.54386    13607.736     2924.207    26.394454    239.54386 
 1512000    255.65031    8881.9876     2924.207     27.20163    255.65031 
 1513000     258.5067    2472.9541     2924.207    28.229831     258.5067 
 1514000    243.46818   -1072.4323     2924.207    29.560933    243.46818 
 1515000    249.04907    5452.4801     2924.207    29.781706    249.04907 
 1516000    253.63625     12410.75     2924.207    29.604029    253.63625 
 1517000    265.84492      7896.74     2924.207    30.030184    265.84492 
 1518000    255.03881   -107.41409     2924.207    29.804711    255.03881 
 1519000    247.72102    6330.1535     2924.207    29.129323    247.72102 
 1520000    248.28027    12817.462     2924.207    27.053842    248.28027 
 1521000    235.07929    5735.6634     2924.207    25.557449    235.07929 
 1522000    268.13069   -5498.8551     2924.207    25.210348    268.13069 
 1523000     252.9275    9556.2076     2924.207    26.099047     252.9275 
 1524000    242.27015    11135.226     2924.207    27.258405    242.27015 
 1525000    250.77891    4504.4911     2924.207    26.501529    250.77891 
 1526000    252.09496    -1176.269     2924.207    26.147707    252.09496 
 1527000    262.67526    8420.6308     2924.207    25.964077    262.67526 
 1528000    257.79316    11845.764     2924.207    24.796146    257.79316 
 1529000    251.90561   -3925.6618     2924.207    25.456695    251.90561 
 1530000      256.895    3675.6571     2924.207    26.325163      256.895 
 1531000    249.78089    12582.218     2924.207    26.318248    249.78089 
 1532000    262.43381    4720.5054     2924.207    26.522866    262.43381 
 1533000     245.4737    8078.8406     2924.207    27.147462     245.4737 
 1534000    260.52871    1544.9982     2924.207    27.929331    260.52871 
 1535000     254.4009    2317.4747     2924.207    28.105655     254.4009 
 1536000    250.85309    10822.794     2924.207    28.953861    250.85309 
 1537000    263.21061    8589.3494     2924.207     30.17926    263.21061 
 1538000    248.06893    1682.6752     2924.207    30.952187    248.06893 
 1539000    251.81934    1747.3855     2924.207    31.073293    251.81934 
 1540000    251.14886    8893.3776     2924.207    31.649965    251.14886 
 1541000    263.74836    5159.4181     2924.207    31.860199    263.74836 
 1542000    260.91868    5853.5109     2924.207    31.047038    260.91868 
 1543000    241.53663    4214.1021     2924.207    31.223934    241.53663 
 1544000    250.99529    7233.1972     2924.207    32.002292    250.99529 
 1545000    248.06967    7477.1858     2924.207    33.287361    248.06967 
 1546000    240.45655    2428.9928     2924.207    34.282205    240.45655 
 1547000    270.45202    4539.8654     2924.207     33.34378    270.45202 
 1548000    260.86783    9714.6582     2924.207    32.737988    260.86783 
 1549000    269.85084    153.99684     2924.207    31.234237    269.85084 
 1550000    255.69024    4191.8683     2924.207    31.393007    255.69024 
 1551000    263.92609    3324.6819     2924.207    32.052285    263.92609 
 1552000      236.573    9153.6541     2924.207    32.889403      236.573 
 1553000    247.83408    7147.0632     2924.207    31.910799    247.83408 
 1554000    255.07682    4135.8511     2924.207     30.91032    255.07682 
 1555000    252.47105    6775.1063     2924.207    31.523895    252.47105 
 1556000    243.19253    4907.2619     2924.207    30.936056    243.19253 
 1557000    250.25467    5584.6185     2924.207    29.959169    250.25467 
 1558000    268.75077   -1162.5041     2924.207    29.569588    268.75077 
 1559000    256.38653    6284.6587     2924.207    28.683574    256.38653 
 1560000    260.71544    7393.7062     2924.207    27.274657    260.71544 
 1561000    250.10174    3461.9792     2924.207    25.076534    250.10174 
 1562000    251.14677    4521.5421     2924.207    24.454601    251.14677 
 1563000    256.43741     2983.813     2924.207    23.727097    256.43741 
 1564000    251.57614    10382.764     2924.207    23.855742    251.57614 
 1565000    265.52774    7663.2168     2924.207    26.133887    265.52774 
 1566000    265.27884    2940.2466     2924.207    27.563629    265.27884 
 1567000    251.90853    798.76858     2924.207    27.740618    251.90853 
 1568000    257.43823    5223.9635     2924.207    24.824677    257.43823 
 1569000    260.25997    8647.3152     2924.207    21.934476    260.25997 
 1570000    257.35518    4133.9472     2924.207    23.851709    257.35518 
 1571000    257.12765   -1240.6073     2924.207    25.954404    257.12765 
 1572000    251.49945    8018.2109     2924.207    26.136503    251.49945 
 1573000    246.25884    11072.369     2924.207    26.448537    246.25884 
 1574000    256.80022    5867.0359     2924.207    27.236579    256.80022 
 1575000    262.74833    399.46913     2924.207    29.571388    262.74833 
 1576000    257.64098    7489.2398     2924.207    29.982608    257.64098 
 1577000    258.70033    6888.2652     2924.207     30.28308    258.70033 
 1578000    247.66857    2188.5614     2924.207    31.153899    247.66857 
 1579000    246.24688    2575.6371     2924.207    30.489563    246.24688 
 1580000    262.36047     8284.885     2924.207    27.824855    262.36047 
 1581000    265.22458    10061.472     2924.207    26.288745    265.22458 
 1582000    244.93571   -2125.2878     2924.207     26.55954    244.93571 
 1583000    256.15837    7293.7436     2924.207     27.65923    256.15837 
 1584000    263.31899     12511.33     2924.207    28.202438    263.31899 
 1585000    241.53409    2221.9836     2924.207    29.300718    241.53409 
 1586000    242.47572   -610.73081     2924.207    29.126541    242.47572 
 1587000    256.65189    7070.8952     2924.207    29.188123    256.65189 
 1588000    250.13406    8289.0227     2924.207    28.983383    250.13406 
 1589000    267.77839    3048.0898     2924.207    30.228736    267.77839 
 1590000    238.48416    1627.7368     2924.207    30.373038    238.48416 
 1591000    272.25749    13118.173     2924.207    29.446273    272.25749 
 1592000    249.67774    5340.7299     2924.207    28.096667    249.67774 
 1593000    254.16243    580.53965     2924.207    27.653245    254.16243 
 1594000    255.94725    10509.781     2924.207    28.296075    255.94725 
 1595000    257.20155     3507.805     2924.207    28.680356    257.20155 
 1596000    247.60754   -1040.4493     2924.207    28.199356    247.60754 
 1597000    261.19054    7582.4882     2924.207    28.569675    261.19054 
 1598000     256.8365    10229.713     2924.207     28.94172     256.8365 
 1599000    245.49262    2107.6786     2924.207    28.999182    245.49262 
 1600000    242.30923     4735.633     2924.207    28.118488    242.30923 
 1601000    261.44069    10603.645     2924.207    27.799624    261.44069 
 1602000    249.82134    7192.6745     2924.207     27.45747    249.82134 
 1603000    254.26968    3724.9991     2924.207    26.289663    254.26968 
 1604000    255.29286    7999.7251     2924.207    25.532553    255.29286 
 1605000    251.72899    6801.3053     2924.207    25.444077    251.72899 
 1606000    236.27322    7395.3992     2924.207    26.678134    236.27322 
 1607000    269.53914    3769.2881     2924.207    26.071884    269.53914 
 1608000    240.75192    3586.3249     2924.207    24.471475    240.75192 
 1609000    257.90051     8554.445     2924.207    24.965525    257.90051 
 1610000    249.04735     5403.114     2924.207    25.821926    249.04735 
 1611000    264.06212    8478.4404     2924.207    26.412712    264.06212 
 1612000    266.89178    2731.2746     2924.207    26.892266    266.89178 
 1613000    255.85895    2081.7415     2924.207    26.454971    255.85895 
 1614000    253.03478    9918.0079     2924.207    27.170995    253.03478 
 1615000    263.92979    10264.303     2924.207    27.816297    263.92979 
 1616000    254.46894   -1296.1391     2924.207    28.025163    254.46894 
 1617000    263.38585   -1800.5427     2924.207    28.965595    263.38585 
 1618000    257.65079     15943.94     2924.207    28.465917    257.65079 
 1619000    257.85919    5432.8296     2924.207    27.602499    257.85919 
 1620000    247.72295    -4294.469     2924.207    25.846601    247.72295 
 1621000    270.37463    3442.4452     2924.207    25.797295    270.37463 
 1622000    251.14242    17553.812     2924.207    26.793508    251.14242 
 1623000    252.52769    7082.4178     2924.207    26.418613    252.52769 
 1624000    248.08481   -5030.1262     2924.207    26.546965    248.08481 
 1625000    251.76234    1477.2098     2924.207    25.367065    251.76234 
 1626000    270.65277    17147.577     2924.207    23.708427    270.65277 
 1627000    267.90866    9274.9828     2924.207    21.982411    267.90866 
 1628000    246.64189    -5710.915     2924.207    20.682826    246.64189 
 1629000    249.56086    3543.5012     2924.207    22.863109    249.56086 
 1630000    252.62882    16852.096     2924.207    23.987073    252.62882 
 1631000    241.37643    6765.2756     2924.207    24.571645    241.37643 
 1632000    269.05819   -3055.2115     2924.207    25.026447    269.05819 
 1633000    261.66848     5910.175     2924.207    24.958754    261.66848 
 1634000    267.30579    8270.8867     2924.207    23.244743    267.30579 
 1635000    260.79354    9186.8742     2924.207    23.524501    260.79354 
 1636000    250.57444   -404.13511     2924.207    25.173263    250.57444 
 1637000     239.0347   -2449.7507     2924.207    25.733462     239.0347 
 1638000    245.88212    9502.7598     2924.207    26.113077    245.88212 
 1639000    254.81217    9074.4765     2924.207    25.005678    254.81217 
 1640000    241.49834    1619.4268     2924.207    25.539295    241.49834 
 1641000    241.60908    2298.5055     2924.207    26.014933    241.60908 
 1642000    264.90112    6428.2259     2924.207    25.545271    264.90112 
 1643000    270.26144    8536.0349     2924.207    25.216223    270.26144 
 1644000    266.57192    4105.9077     2924.207    26.458194    266.57192 
 1645000    237.71201    4303.3366     2924.207    28.630163    237.71201 
 1646000    245.42962    3041.2628     2924.207    30.051422    245.42962 
 1647000    265.96886      798.572     2924.207    30.334661    265.96886 
 1648000    251.36868    4442.8173     2924.207    31.897942    251.36868 
 1649000    253.96337    10397.613     2924.207    31.669357    253.96337 
 1650000    242.74368    853.46524     2924.207    30.070527    242.74368 
 1651000    260.20369    1414.2648     2924.207    30.954364    260.20369 
 1652000    268.39751    9918.3683     2924.207    30.512066    268.39751 
 1653000    249.91414    8134.5392     2924.207    30.078377    249.91414 
 1654000    261.54078    7378.4264     2924.207    30.733476    261.54078 
 1655000    272.14013    4844.6232     2924.207    31.052558    272.14013 
 1656000    265.61492    3055.7294     2924.207    32.557677    265.61492 
 1657000    268.05264    9145.6728     2924.207    32.829435    268.05264 
 1658000    244.49476    4369.9313     2924.207     32.51271    244.49476 
 1659000    269.22656    4186.1151     2924.207    31.262434    269.22656 
 1660000    257.47612    6398.4942     2924.207    29.729756    257.47612 
 1661000    246.16881    8017.1142     2924.207    29.382953    246.16881 
 1662000     265.9382    3791.2261     2924.207    30.079058     265.9382 
 1663000    268.33981    8887.8603     2924.207    30.604247    268.33981 
 1664000    251.11778    4583.4037     2924.207    31.709531    251.11778 
 1665000    247.70725    14.770898     2924.207    32.677239    247.70725 
 1666000    232.78451   -139.60899     2924.207    32.218835    232.78451 
 1667000    250.73539    10283.958     2924.207    30.949289    250.73539 
 1668000    257.81988    9015.2459     2924.207     32.17212    257.81988 
 1669000    270.71976   -2031.0593     2924.207     32.63964    270.71976 
 1670000    242.48731    713.78361     2924.207    32.639567    242.48731 
 1671000    248.42423    9755.6358     2924.207     32.19607    248.42423 
 1672000     247.6435    5964.7057     2924.207    32.408233     247.6435 
 1673000    237.34065   -64.016863     2924.207     33.24565    237.34065 
 1674000    267.43966    6003.8095     2924.207    33.310574    267.43966 
 1675000    265.17044     10206.66     2924.207    32.819472    265.17044 
 1676000    241.06528    7029.9172     2924.207    32.907395    241.06528 
 1677000    266.16504    7944.9087     2924.207    33.184329    266.16504 
 1678000     246.4771   -923.07479     2924.207    33.503241     246.4771 
 1679000     261.0808    7246.8055     2924.207    33.301052     261.0808 
 1680000    257.93517     8839.623     2924.207    31.536078    257.93517 
 1681000    248.25819    2981.2847     2924.207    31.434039    248.25819 
 1682000    274.35744   -986.51687     2924.207    33.165541    274.35744 
 1683000    266.17997    2510.3695     2924.207    33.795373    266.17997 
 1684000    250.24436    8603.8575     2924.207    32.891555    250.24436 
 1685000    242.16585    5773.6031     2924.207    32.828475    242.16585 
 1686000       249.97    6077.9079     2924.207    33.117529       249.97 
 1687000    255.50066    2697.2524     2924.207    32.772238    255.50066 
 1688000    249.29848    5519.6875     2924.207    32.625497    249.29848 
 1689000    275.30263    8941.6294     2924.207    33.149935    275.30263 
 1690000    266.04074    4379.7581     2924.207     33.89099    266.04074 
 1691000     247.1594    3181.6802     2924.207    34.548202     247.1594 
 1692000    251.24699    4735.7075     2924.207    33.778343    251.24699 
 1693000    245.61668    1158.9275     2924.207    32.589761    245.61668 
 1694000    268.03294    1431.3054     2924.207    31.543264    268.03294 
 1695000    255.21676    7468.1875     2924.207    29.561062    255.21676 
 1696000     244.6026    8627.0562     2924.207    27.406056     244.6026 
 1697000    247.59497    8045.4058     2924.207    27.112753    247.59497 
 1698000    256.39705    5189.8562     2924.207    27.621439    256.39705 
 1699000    256.28733    1561.2017     2924.207    28.808358    256.28733 
 1700000    273.18063    4960.9307     2924.207    29.724257    273.18063 
 1701000    243.19169    4255.3715     2924.207    30.254774    243.19169 
 1702000    248.39769    5847.5683     2924.207    30.634551    248.39769 
 1703000    247.24857    8089.1134     2924.207    30.626798    247.24857 
 1704000    254.88027    3678.0201     2924.207    29.675136    254.88027 
 1705000    247.72462    7571.4579     2924.207    28.925563    247.72462 
 1706000    273.98994    10296.246     2924.207    28.786926    273.98994 
 1707000    259.45303    3495.3622     2924.207    29.317308    259.45303 
 1708000    246.37965    1172.4936     2924.207    29.769736    246.37965 
 1709000    266.13152    6038.4545     2924.207    29.738611    266.13152 
 1710000    239.41855    8686.0919     2924.207    30.419507    239.41855 
 1711000    247.48277    4380.5903     2924.207    29.976052    247.48277 
 1712000     243.0341   -45.558043     2924.207    29.077853     243.0341 
 1713000    257.08275    -291.8471     2924.207    29.552192    257.08275 
 1714000    268.23813    10025.201     2924.207    30.363545    268.23813 
 1715000    237.71324     6716.993     2924.207     29.36696    237.71324 
 1716000    256.55829    1603.5746     2924.207    28.645542    256.55829 
 1717000    243.51826    5706.0933     2924.207    28.761436    243.51826 
 1718000    262.37441    6321.2488     2924.207    29.182854    262.37441 
 1719000    257.67703    7714.9711     2924.207    29.802639    257.67703 
 1720000     260.1845    2744.7601     2924.207    29.483587     260.1845 
 1721000    258.13514    3105.5426     2924.207    29.157189    258.13514 
 1722000    241.52889    3628.2819     2924.207    29.044296    241.52889 
 1723000    250.53887    15445.085     2924.207    29.230136    250.53887 
 1724000    246.04063    6516.9054     2924.207    27.884999    246.04063 
 1725000    241.47592     285.4761     2924.207    29.190989    241.47592 
 1726000    258.42578    3919.5118     2924.207    30.034216    258.42578 
 1727000     258.3671    9856.1683     2924.207    31.055225     258.3671 
 1728000    253.22858    9532.7905     2924.207    31.325774    253.22858 
 1729000    262.72249   -2751.9138     2924.207    32.471015    262.72249 
 1730000    248.13844    3434.1875     2924.207    32.502048    248.13844 
 1731000    252.61112    8282.8946     2924.207    31.520195    252.61112 
 1732000    254.26272    8551.5311     2924.207    30.917353    254.26272 
 1733000    256.06986    6898.4625     2924.207    30.274832    256.06986 
 1734000    251.96726   -2569.9606     2924.207    29.182716    251.96726 
 1735000    258.37857     3946.214     2924.207    29.567757    258.37857 
 1736000    270.95362    11043.037     2924.207    28.509259    270.95362 
 1737000    257.64589    5285.5376     2924.207    27.938897    257.64589 
 1738000    230.52692   -3858.6228     2924.207    27.456053    230.52692 
 1739000    264.46052    5702.1509     2924.207     27.44066    264.46052 
 1740000    270.00291    10004.654     2924.207    26.277197    270.00291 
 1741000    241.23004    8058.2975     2924.207    27.376784    241.23004 
 1742000    254.57358   -584.30369     2924.207    27.245101    254.57358 
 1743000      250.322    2388.0753     2924.207    27.575269      250.322 
 1744000    251.90096     6901.119     2924.207    28.148525    251.90096 
 1745000    258.23717    7600.7106     2924.207    28.294366    258.23717 
 1746000     258.6833    6988.9394     2924.207    28.781981     258.6833 
 1747000    259.19421    4634.1018     2924.207     29.63319    259.19421 
 1748000    253.78689    4569.3263     2924.207    29.984711    253.78689 
 1749000     245.0717    4335.1149     2924.207    29.899788     245.0717 
 1750000    254.50795    5130.0789     2924.207    29.600683    254.50795 
 1751000    260.43614    4791.0248     2924.207    29.610063    260.43614 
 1752000     259.2524    7664.1246     2924.207    29.825659     259.2524 
 1753000    253.98931    460.20641     2924.207    30.918282    253.98931 
 1754000    258.86419    6893.3007     2924.207    32.186371    258.86419 
 1755000    273.50663    5251.9737     2924.207    32.386956    273.50663 
 1756000    247.61362    7699.0925     2924.207    30.597106    247.61362 
 1757000    259.56375    4700.2181     2924.207    31.259634    259.56375 
 1758000    258.52339    6902.4448     2924.207    30.957248    258.52339 
 1759000    249.04526     3186.105     2924.207    30.687748    249.04526 
 1760000    252.75507    8121.4879     2924.207    29.874353    252.75507 
 1761000    265.91942    9970.9956     2924.207    29.970607    265.91942 
 1762000    237.44571    -5064.797     2924.207    31.105356    237.44571 
 1763000    260.58969   -845.84218     2924.207    31.192349    260.58969 
 1764000    255.51169    11053.793     2924.207    31.515908    255.51169 
 1765000     229.4911    2709.4172     2924.207     31.59596     229.4911 
 1766000    260.40443    3209.6868     2924.207    31.044843    260.40443 
 1767000    260.04553    2279.7006     2924.207    30.784305    260.04553 
 1768000    254.81469    14056.379     2924.207    30.476407    254.81469 
 1769000    266.43509    10494.417     2924.207    31.678462    266.43509 
 1770000    237.40257   -5084.3145     2924.207    32.574755    237.40257 
 1771000    248.04629   