  LAMMPS description
 
    1920   atoms
       0   bonds
       0   angles
       0   dihedrals
 
      32   atom types
       0   bond types
       0   angle types
       0   dihedral types
 
       0   28.400000     xlo xhi
       0   28.400000     ylo yhi
       0   28.400000     zlo zhi
  0.0000000      0.0000000      0.0000000     xy xz yz

  Masses

       1   12.010000
       2   12.010000
       3   12.010000
       4   12.010000
       15   12.010000
       1  12.010000
       1   12.010000
       1   12.010000
       1   12.010000
       1   12.010000
       1   12.010000
       1   12.010000
       1   12.010000
       1   12.010000
       1   12.010000
       1   12.010000
       1   12.010000
       1   12.010000
       1   12.010000
       1   12.010000
       1   12.010000
       1   12.010000
       1   12.010000
       1   12.010000
       1   12.010000
       1   12.010000
       1   12.010000
       1   12.010000
       1   12.010000
       1   12.010000
       1   12.010000
       1   12.010000

   Atoms

1	1	1	0	2.34	2.6	-0.594
2	1	1	0	1.987155	2.956995	0.714338
3	1	1	0	1.500434	2.940008	-1.703884
4	1	1	0	0.235806	3.513042	-1.426594
5	1	1	0	2.618773	0.968831	-2.051065
6	1	1	0	2.480394	-0.416992	-2.204426
7	1	1	0	3.228895	1.475172	-0.850431
8	1	1	0	3.745183	0.65263	0.181824
9	1	1	0	1.686151	1.875098	-2.70791
10	1	1	0	0.586447	1.336233	-3.439599
11	1	1	0	0.748821	3.6619	0.961066
12	1	1	0	-0.148995	3.978378	-0.085594
13	1	1	0	0.325456	2.93909	2.147594
14	1	1	0	-1.029201	2.597334	2.310116
15	1	1	0	2.488053	2.162195	1.822994
16	1	1	0	3.224247	0.993106	1.518378
17	1	1	0	1.368714	2.136945	2.769997
18	1	1	0	0.996531	0.97543	3.500258
19	1	1	0	-1.535852	3.507951	0.073393
20	1	1	0	-1.974028	2.893722	1.271178
21	1	1	0	-2.019703	2.89864	-1.167747
22	1	1	0	-2.969516	1.851929	-1.170672
23	1	1	0	-0.89777	2.871775	-2.064198
24	1	1	0	-0.727399	1.824876	-2.993513
25	1	1	0	-2.963555	1.800557	1.26198
26	1	1	0	-3.560409	1.297793	0.063358
27	1	1	0	-2.470864	0.907264	2.282876
28	1	1	0	-2.627831	-0.478104	2.133096
29	1	1	0	-1.397408	1.446518	3.114092
30	1	1	0	-0.433203	0.622767	3.762956
31	1	1	0	-3.746317	-0.166566	-0.107794
32	1	1	0	-3.238489	-0.989009	0.929875
33	1	1	0	-3.217949	-0.505062	-1.445495
34	1	1	0	-2.486723	-1.674173	-1.753594
35	1	1	0	-2.690975	0.72772	-2.016915
36	1	1	0	-1.635381	0.734659	-2.948125
37	1	1	0	-2.339941	-2.106105	0.668017
38	1	1	0	-1.982551	-2.461358	-0.641091
39	1	1	0	-1.499104	-2.444668	1.778503
40	1	1	0	-0.231574	-3.007558	1.499518
41	1	1	0	-1.684894	-1.379218	2.781281
42	1	1	0	-0.581049	-0.834038	3.501463
43	1	1	0	-0.740538	-3.161308	-0.881165
44	1	1	0	0.156129	-3.479384	0.163918
45	1	1	0	-0.312894	-2.43206	-2.058659
46	1	1	0	1.0395	-2.09305	-2.223175
47	1	1	0	-1.354617	-1.632886	-2.683637
48	1	1	0	-0.980391	-0.475644	-3.416879
49	1	1	0	1.544892	-3.015769	0.004966
50	1	1	0	1.988208	-2.404413	-1.19358
51	1	1	0	2.030174	-2.402619	1.248461
52	1	1	0	2.993415	-1.363932	1.255958
53	1	1	0	0.902402	-2.370135	2.137361
54	1	1	0	0.731689	-1.315336	3.053176
55	1	1	0	2.981577	-1.313206	-1.186589
56	1	1	0	3.582046	-0.816014	0.013876
57	1	1	0	1.406862	-0.949088	-3.037208
58	1	1	0	0.445467	-0.124648	-3.689198
59	1	1	0	2.727027	-0.240168	2.113841
60	1	1	0	1.653737	-0.237057	3.026137
61	2	2	0	9.227065	9.679764	-0.804389
62	2	2	0	8.842919	10.157469	0.460528
63	2	2	0	8.342056	9.776579	-1.924602
64	2	2	0	7.037094	10.269258	-1.712732
65	2	2	0	9.566268	7.888196	-2.085471
66	2	2	0	9.534996	6.48909	-2.111367
67	2	2	0	10.144572	8.55227	-0.944361
68	2	2	0	10.69329	7.857563	0.170371
69	2	2	0	8.586797	8.66203	-2.846184
70	2	2	0	7.54486	8.015913	-3.583563
71	2	2	0	7.548479	10.80745	0.646412
72	2	2	0	6.640184	10.866402	-0.43916
73	2	2	0	7.130795	10.185981	1.896274
74	2	2	0	5.801324	9.751085	2.085037
75	2	2	0	9.323466	9.443024	1.632687
76	2	2	0	10.130249	8.300998	1.460419
77	2	2	0	8.197775	9.438749	2.547895
78	2	2	0	7.88972	8.339161	3.386635
79	2	2	0	5.307251	10.287942	-0.268283
80	2	2	0	4.898727	9.777142	0.977013
81	2	2	0	4.806113	9.608893	-1.457431
82	2	2	0	3.926068	8.513173	-1.33795
83	2	2	0	5.939655	9.56427	-2.352
84	2	2	0	6.181272	8.473795	-3.218501
85	2	2	0	3.943877	8.671414	1.075687
86	2	2	0	3.351188	8.04055	-0.05942
87	2	2	0	4.469424	7.94208	2.199455
88	2	2	0	4.408736	6.542075	2.182129
89	2	2	0	5.4883	8.638977	2.984235
90	2	2	0	6.492286	7.928973	3.714564
91	2	2	0	3.268415	6.553118	-0.081958
92	2	2	0	3.823104	5.870116	1.040441
93	2	2	0	3.835726	6.116022	-1.380968
94	2	2	0	4.666249	4.989199	-1.54227
95	2	2	0	4.332817	7.314941	-2.030352
96	2	2	0	5.385439	7.308855	-2.967392
97	2	2	0	4.766203	4.758866	0.902576
98	2	2	0	5.167827	4.293153	-0.363084
99	2	2	0	5.644015	4.666942	2.021842
100	2	2	0	6.951192	4.201579	1.79057
101	2	2	0	5.394078	5.777785	2.943573
102	2	2	0	6.439892	6.433207	3.66541
103	2	2	0	6.452393	3.64076	-0.550494
104	2	2	0	7.353563	3.583217	0.53337
105	2	2	0	6.869848	4.274128	-1.790135
106	2	2	0	8.197351	4.700597	-1.982464
107	2	2	0	5.805423	5.017601	-2.438669
108	2	2	0	6.113547	6.111393	-3.281221
109	2	2	0	8.690295	4.141364	0.364105
110	2	2	0	9.104691	4.646833	-0.882844
111	2	2	0	9.192945	4.813005	1.562229
112	2	2	0	10.082719	5.903439	1.442685
113	2	2	0	8.046313	4.88125	2.442887
114	2	2	0	7.796823	5.983148	3.284663
115	2	2	0	10.058692	5.752477	-0.988385
116	2	2	0	10.648464	6.372848	0.153606
117	2	2	0	8.509526	5.804034	-2.892349
118	2	2	0	7.504888	6.519011	-3.616532
119	2	2	0	9.668389	7.103774	2.130753
120	2	2	0	8.605347	7.132909	3.052487
121	3	3	0	9.368613	2.613117	6.443681
122	3	3	0	8.998151	2.977366	7.747344
123	3	3	0	8.538558	2.943153	5.323192
124	3	3	0	7.266459	3.499204	5.589449
125	3	3	0	9.680339	0.98255	4.990189
126	3	3	0	9.525572	-0.404745	4.851509
127	3	3	0	10.279624	1.502567	6.196971
128	3	3	0	10.780255	0.689092	7.245585
129	3	3	0	8.73741	1.875122	4.326871
130	3	3	0	7.641349	1.321824	3.59969
131	3	3	0	7.754625	3.68	7.972603
132	3	3	0	6.866482	3.982777	6.916341
133	3	3	0	7.318743	2.956668	9.150769
134	3	3	0	5.966156	2.614593	9.306872
135	3	3	0	9.496301	2.200624	8.868124
136	3	3	0	10.233855	1.033436	8.574469
137	3	3	0	8.356471	2.16072	9.786175
138	3	3	0	7.981383	1.010158	10.528824
139	3	3	0	5.479462	3.513229	7.06408
140	3	3	0	5.029548	2.907751	8.262456
141	3	3	0	4.999826	2.898109	5.819616
142	3	3	0	4.04009	1.856431	5.812705
143	3	3	0	6.139784	2.857306	4.944777
144	3	3	0	6.322195	1.799488	4.035004
145	3	3	0	4.036931	1.816819	8.256342
146	3	3	0	3.444513	1.312917	7.05466
147	3	3	0	4.527625	0.931811	9.288295
148	3	3	0	4.396921	-0.455703	9.142227
149	3	3	0	5.595038	1.474012	10.124613
150	3	3	0	6.553561	0.656439	10.791138
151	3	3	0	3.291709	-0.157844	6.896746
152	3	3	0	3.801716	-0.9722	7.93869
153	3	3	0	3.827923	-0.505917	5.569254
154	3	3	0	4.565523	-1.67616	5.277064
155	3	3	0	4.325129	0.724703	4.969588
156	3	3	0	5.402632	0.719119	4.062644
157	3	3	0	4.693069	-2.098385	7.695166
158	3	3	0	5.055835	-2.467314	6.393069
159	3	3	0	5.525234	-2.422344	8.815864
160	3	3	0	6.795171	-2.987023	8.552238
161	3	3	0	5.327908	-1.354334	9.813416
162	3	3	0	6.418574	-0.808415	10.554297
163	3	3	0	6.300669	-3.167335	6.162475
164	3	3	0	7.191245	-3.465308	7.220407
165	3	3	0	6.733069	-2.447335	4.97736
166	3	3	0	8.088547	-2.103514	4.822847
167	3	3	0	5.693849	-1.650116	4.342891
168	3	3	0	6.066885	-0.494248	3.604384
169	3	3	0	8.577055	-2.990169	7.073668
170	3	3	0	9.022031	-2.381611	5.876178
171	3	3	0	9.055172	-2.378895	8.315982
172	3	3	0	10.000842	-1.328541	8.317816
173	3	3	0	7.92128	-2.344166	9.199284
174	3	3	0	7.738938	-1.293262	10.121446
175	3	3	0	10.008827	-1.286967	5.885729
176	3	3	0	10.598939	-0.777457	7.084913
177	3	3	0	8.45951	-0.955089	4.016282
178	3	3	0	7.498505	-0.139006	3.351846
179	3	3	0	9.703121	-0.195943	9.147565
180	3	3	0	8.643434	-0.20025	10.07422
181	4	4	0	2.026727	9.864425	5.850788
182	4	4	0	1.594881	10.462111	7.055338
183	4	4	0	1.084675	9.607694	4.805205
184	4	4	0	-0.258547	9.978699	4.977635
185	4	4	0	2.482101	7.894722	4.810381
186	4	4	0	2.589623	6.505664	4.947112
187	4	4	0	3.000704	8.762864	5.841891
188	4	4	0	3.589719	8.242609	7.03535
189	4	4	0	1.426391	8.463098	3.977492
190	4	4	0	0.451338	7.664885	3.311589
191	4	4	0	0.229844	10.980061	7.216905
192	4	4	0	-0.670213	10.71046	6.161723
193	4	4	0	-0.164247	10.510599	8.55224
194	4	4	0	-1.444058	9.967179	8.816382
195	4	4	0	2.074992	9.847893	8.292298
196	4	4	0	3.011079	8.790023	8.281477
197	4	4	0	0.954284	9.843259	9.191557
198	4	4	0	0.757812	8.788803	10.106188
199	4	4	0	-1.92654	10.034409	6.393112
200	4	4	0	-2.28994	9.669486	7.699345
201	4	4	0	-2.4421	9.266229	5.271479
202	4	4	0	-3.201796	8.112791	5.560535
203	4	4	0	-1.311354	9.201535	4.346068
204	4	4	0	-0.963461	8.048141	3.59473
205	4	4	0	-3.21129	8.567331	7.945799
206	4	4	0	-3.739386	7.77262	6.895368
207	4	4	0	-2.615774	8.029858	9.146185
208	4	4	0	-2.487625	6.639186	9.275857
209	4	4	0	-1.656301	8.899703	9.813678
210	4	4	0	-0.569299	8.324294	10.541062
211	4	4	0	-3.587171	6.303476	7.048815
212	4	4	0	-3.000649	5.775649	8.239496
213	4	4	0	-3.002437	5.752025	5.811261
214	4	4	0	-2.075152	4.689726	5.799887
215	4	4	0	-2.68973	6.876286	4.981087
216	4	4	0	-1.639387	6.845991	4.04268
217	4	4	0	-2.024399	4.675862	8.233867
218	4	4	0	-1.591416	4.078661	7.030957
219	4	4	0	-1.08427	4.910105	9.286492
220	4	4	0	0.260083	4.532766	9.116868
221	4	4	0	-1.430765	6.060889	10.103376
222	4	4	0	-0.453469	6.855861	10.768981
223	4	4	0	-0.22845	3.548801	6.872887
224	4	4	0	0.67908	3.806939	7.929496
225	4	4	0	0.162062	4.004756	5.530673
226	4	4	0	1.442975	4.554259	5.269327
227	4	4	0	-0.9602	4.682947	4.894623
228	4	4	0	-0.771384	5.718219	3.951743
229	4	4	0	1.95036	4.467163	7.693636
230	4	4	0	2.303212	4.839842	6.387554
231	4	4	0	2.437111	5.263476	8.80979
232	4	4	0	3.185084	6.424655	8.516982
233	4	4	0	1.313982	5.31647	9.744353
234	4	4	0	0.964968	6.471954	10.493119
235	4	4	0	3.18523	5.971097	6.140669
236	4	4	0	3.712073	6.773013	7.185091
237	4	4	0	1.640895	5.626914	4.274115
238	4	4	0	0.558409	6.191318	3.527617
239	4	4	0	2.696301	7.659927	9.109474
240	4	4	0	1.6379	7.676431	10.036287
241	5	5	0	16.156586	2.790306	-0.979079
242	5	5	0	15.734063	3.339708	0.246174
243	5	5	0	15.246308	2.687398	-2.071765
244	5	5	0	13.918419	3.107199	-1.888624
245	5	5	0	16.570994	0.896853	-2.121913
246	5	5	0	16.606688	-0.500499	-2.047896
247	5	5	0	17.110841	1.679745	-1.03416
248	5	5	0	17.679173	1.092604	0.136992
249	5	5	0	15.550933	1.554538	-2.937677
250	5	5	0	14.550815	0.820139	-3.644473
251	5	5	0	14.403606	3.93106	0.400964
252	5	5	0	13.503349	3.802986	-0.681216
253	5	5	0	13.989693	3.396165	1.696141
254	5	5	0	12.684456	2.904433	1.920121
255	5	5	0	16.210952	2.693634	1.462308
256	5	5	0	17.100657	1.603068	1.400733
257	5	5	0	15.076397	2.684023	2.34841
258	5	5	0	14.826312	1.632591	3.257629
259	5	5	0	12.202869	3.183093	-0.487095
260	5	5	0	11.815781	2.755503	0.793221
261	5	5	0	11.705122	2.44505	-1.642174
262	5	5	0	10.889001	1.316137	-1.429882
263	5	5	0	12.852462	2.363881	-2.529377
264	5	5	0	13.156212	1.241316	-3.33637
265	5	5	0	10.898164	1.63804	0.978974
266	5	5	0	10.34146	0.918186	-0.113891
267	5	5	0	11.439082	1.023012	2.161657
268	5	5	0	11.490874	-0.374624	2.231629
269	5	5	0	12.424263	1.8221	2.883828
270	5	5	0	13.466771	1.18926	3.635614
271	5	5	0	10.392434	-0.55894	-0.028359
272	5	5	0	10.955581	-1.152146	1.139786
273	5	5	0	10.968332	-1.069682	-1.28903
274	5	5	0	11.847412	-2.167347	-1.35393
275	5	5	0	11.372422	0.090142	-2.039381
276	5	5	0	12.422318	0.055875	-2.978004
277	5	5	0	11.908479	-2.260884	1.086447
278	5	5	0	12.326554	-2.808922	-0.140521
279	5	5	0	12.815002	-2.17588	2.186527
280	5	5	0	14.14311	-2.6074	2.009056
281	5	5	0	12.508912	-1.037856	3.047961
282	5	5	0	13.508804	-0.30364	3.757237
283	5	5	0	13.654097	-3.409717	-0.293402
284	5	5	0	14.555885	-3.292713	0.792298
285	5	5	0	14.064233	-2.884206	-1.596751
286	5	5	0	15.369736	-2.388539	-1.816451
287	5	5	0	12.975607	-2.171548	-2.249918
288	5	5	0	13.223598	-1.115298	-3.157016
289	5	5	0	15.854437	-2.664359	0.595531
290	5	5	0	16.234224	-2.229672	-0.684691
291	5	5	0	16.346265	-1.920402	1.746697
292	5	5	0	17.15108	-0.785066	1.527411
293	5	5	0	15.210932	-1.857276	2.652117
294	5	5	0	14.906273	-0.729313	3.454492
295	5	5	0	17.152232	-1.112941	-0.868169
296	5	5	0	17.708956	-0.38732	0.219618
297	5	5	0	15.628848	-1.302876	-2.776981
298	5	5	0	14.587387	-0.672402	-3.531061
299	5	5	0	16.682479	0.441673	2.14415
300	5	5	0	15.628256	0.463827	3.079045
301	6	6	0	23.101184	9.869037	-0.864556
302	6	6	0	22.689018	10.366128	0.386721
303	6	6	0	22.192893	9.823352	-1.964101
304	6	6	0	20.864733	10.248415	-1.769445
305	6	6	0	23.535359	8.036881	-2.106072
306	6	6	0	23.567288	6.637827	-2.087296
307	6	6	0	24.058302	8.766564	-0.978495
308	6	6	0	24.653467	8.141235	0.158162
309	6	6	0	22.50664	8.723952	-2.879686
310	6	6	0	21.501181	8.010223	-3.60429
311	6	6	0	21.35056	10.917158	0.559733
312	6	6	0	20.447078	10.868586	-0.522582
313	6	6	0	20.954053	10.285496	1.811407
314	6	6	0	19.648291	9.818729	2.043724
315	6	6	0	23.1982	9.689909	1.580346
316	6	6	0	24.088568	8.600993	1.45122
317	6	6	0	22.052148	9.609432	2.461518
318	6	6	0	21.806726	8.503702	3.299794
319	6	6	0	19.164274	10.211585	-0.334743
320	6	6	0	18.765175	9.737627	0.928371
321	6	6	0	18.665232	9.519127	-1.517394
322	6	6	0	17.834535	8.391083	-1.363811
323	6	6	0	19.800913	9.5032	-2.417567
324	6	6	0	20.109845	8.412904	-3.264268
325	6	6	0	17.826651	8.6217	1.060445
326	6	6	0	17.271991	7.944344	-0.065728
327	6	6	0	18.418297	7.942423	2.1949
328	6	6	0	18.478478	6.542598	2.205566
329	6	6	0	19.40411	8.703445	2.959578
330	6	6	0	20.451105	8.048007	3.678808
331	6	6	0	17.358034	6.457224	-0.053372
332	6	6	0	17.955099	5.820932	1.076363
333	6	6	0	17.927912	5.992775	-1.337379
334	6	6	0	18.810352	4.899255	-1.465926
335	6	6	0	18.330442	7.197259	-2.022933
336	6	6	0	19.383053	7.212539	-2.960078
337	6	6	0	18.911313	4.717333	0.968005
338	6	6	0	19.31656	4.213562	-0.281411
339	6	6	0	19.815283	4.73848	2.075199
340	6	6	0	21.145041	4.305135	1.883364
341	6	6	0	19.500309	5.843899	2.983714
342	6	6	0	20.505104	6.551991	3.715848
343	6	6	0	20.651797	3.642858	-0.457268
344	6	6	0	21.561904	3.696715	0.626933
345	6	6	0	21.04484	4.251801	-1.726077
346	6	6	0	22.348671	4.746347	-1.93799
347	6	6	0	19.943992	4.955139	-2.36058
348	6	6	0	20.181224	6.050925	-3.221452
349	6	6	0	22.853268	4.354047	0.442459
350	6	6	0	23.237226	4.837301	-0.820202
351	6	6	0	23.334041	5.060226	1.61844
352	6	6	0	24.140514	6.203375	1.453781
353	6	6	0	22.211764	5.052364	2.537337
354	6	6	0	21.902778	6.145953	3.383605
355	6	6	0	24.153206	5.966775	-0.953105
356	6	6	0	24.701875	6.655994	0.165516
357	6	6	0	22.58786	5.866944	-2.851886
358	6	6	0	21.543731	6.513764	-3.58466
359	6	6	0	23.67468	7.394535	2.130475
360	6	6	0	22.6154	7.35612	3.056471
361	7	7	0	23.110218	2.782606	6.040339
362	7	7	0	22.689784	3.329656	7.267819
363	7	7	0	22.207543	2.696148	4.936697
364	7	7	0	20.876775	3.121498	5.109889
365	7	7	0	23.543643	0.902293	4.885649
366	7	7	0	23.603562	-0.495751	4.950643
367	7	7	0	24.067207	1.676962	5.984082
368	7	7	0	24.631333	1.081646	7.150717
369	7	7	0	22.523875	1.563693	4.070471
370	7	7	0	21.529447	0.827267	3.355094
371	7	7	0	21.355215	3.916917	7.418234
372	7	7	0	20.456637	3.796743	6.329574
373	7	7	0	20.943545	3.380231	8.716826
374	7	7	0	19.639743	2.878952	8.932542
375	7	7	0	23.16911	2.683098	8.479949
376	7	7	0	24.050761	1.586955	8.411375
377	7	7	0	22.034613	2.671981	9.369096
378	7	7	0	21.790479	1.610033	10.270783
379	7	7	0	19.162294	3.155571	6.52027
380	7	7	0	18.779001	2.716209	7.797694
381	7	7	0	18.678097	2.415843	5.365342
382	7	7	0	17.880089	1.275329	5.578446
383	7	7	0	19.814472	2.366895	4.460598
384	7	7	0	20.127631	1.244646	3.653235
385	7	7	0	17.865233	1.595841	7.973782
386	7	7	0	17.318344	0.870285	6.881521
387	7	7	0	18.4143	0.981462	9.151456
388	7	7	0	18.454904	-0.41603	9.221921
389	7	7	0	19.385778	1.787544	9.886736
390	7	7	0	20.428057	1.160343	10.641991
391	7	7	0	17.357425	-0.609264	6.956857
392	7	7	0	17.928164	-1.19624	8.126914
393	7	7	0	17.939056	-1.113274	5.691627
394	7	7	0	18.834423	-2.199427	5.627711
395	7	7	0	18.354626	0.055165	4.955965
396	7	7	0	19.410823	0.046	4.023546
397	7	7	0	18.886558	-2.303077	8.068629
398	7	7	0	19.313605	-2.848354	6.842828
399	7	7	0	19.792353	-2.198047	9.164762
400	7	7	0	21.122503	-2.612493	8.985388
401	7	7	0	19.477425	-1.071198	10.0362
402	7	7	0	20.472034	-0.333238	10.748079
403	7	7	0	20.649033	-3.428479	6.69029
404	7	7	0	21.544741	-3.299867	7.776094
405	7	7	0	21.064153	-2.87993	5.401009
406	7	7	0	22.367374	-2.383567	5.180617
407	7	7	0	19.976331	-2.171649	4.751317
408	7	7	0	20.222937	-1.113995	3.849039
409	7	7	0	22.839263	-2.66593	7.587213
410	7	7	0	23.231372	-2.234208	6.310045
411	7	7	0	23.332103	-1.932884	8.746643
412	7	7	0	24.144154	-0.800141	8.541997
413	7	7	0	22.182188	-1.863032	9.630792
414	7	7	0	21.869687	-0.746151	10.442255
415	7	7	0	24.146948	-1.113672	6.131589
416	7	7	0	24.696015	-0.395676	7.229597
417	7	7	0	22.624136	-1.297076	4.221853
418	7	7	0	21.580464	-0.665826	3.471567
419	7	7	0	23.651164	0.420034	9.154705
420	7	7	0	22.599012	0.444428	10.091084
421	8	8	0	16.339498	9.630879	6.4246
422	8	8	0	15.983972	9.995325	7.731822
423	8	8	0	15.495309	9.950027	5.301594
424	8	8	0	14.22253	10.517862	5.562382
425	8	8	0	16.614775	7.979576	4.968669
426	8	8	0	16.484626	6.593519	4.816632
427	8	8	0	17.210442	8.493457	6.171287
428	8	8	0	17.712869	7.672814	7.211424
429	8	8	0	15.683077	8.880744	4.301122
430	8	8	0	14.594869	8.33536	3.551422
431	8	8	0	14.722609	10.673831	7.965
432	8	8	0	13.827149	10.968208	6.906846
433	8	8	0	14.287147	9.943487	9.143082
434	8	8	0	12.936021	9.586914	9.299114
435	8	8	0	16.453279	9.185534	8.84403
436	8	8	0	17.179066	8.012834	8.540955
437	8	8	0	15.32578	9.142366	9.776877
438	8	8	0	14.954109	7.98504	10.514795
439	8	8	0	12.449784	10.467998	7.053765
440	8	8	0	12.003153	9.858755	8.247281
441	8	8	0	11.970672	9.865492	5.81417
442	8	8	0	11.028908	8.815167	5.806337
443	8	8	0	13.095758	9.853858	4.923198
444	8	8	0	13.272708	8.819716	3.977443
445	8	8	0	11.017586	8.766242	8.235845
446	8	8	0	10.434914	8.257443	7.035432
447	8	8	0	11.50231	7.883394	9.267846
448	8	8	0	11.349475	6.496007	9.124368
449	8	8	0	12.565448	8.436417	10.104374
450	8	8	0	13.525326	7.620339	10.769308
451	8	8	0	10.25247	6.795206	6.868583
452	8	8	0	10.75384	5.980396	7.914587
453	8	8	0	10.796044	6.46318	5.536488
454	8	8	0	11.533551	5.29824	5.236935
455	8	8	0	11.319386	7.696561	4.960392
456	8	8	0	12.375391	7.715341	4.028078
457	8	8	0	11.665735	4.87324	7.661829
458	8	8	0	12.031861	4.516901	6.354443
459	8	8	0	12.49374	4.537808	8.783669
460	8	8	0	13.765863	3.977845	8.518258
461	8	8	0	12.291812	5.602461	9.78617
462	8	8	0	13.384965	6.158224	10.517889
463	8	8	0	13.277026	3.820345	6.125023
464	8	8	0	14.165071	3.514618	7.181116
465	8	8	0	13.705868	4.55588	4.950386
466	8	8	0	15.055816	4.907209	4.792754
467	8	8	0	12.667827	5.350631	4.312375
468	8	8	0	13.037941	6.505182	3.570985
469	8	8	0	15.544733	4.002692	7.031658
470	8	8	0	15.990933	4.612783	5.836737
471	8	8	0	16.019929	4.608166	8.277312
472	8	8	0	16.969233	5.655494	8.284798
473	8	8	0	14.889645	4.629264	9.163588
474	8	8	0	14.705027	5.682713	10.080986
475	8	8	0	16.975228	5.706726	5.844426
476	8	8	0	17.560044	6.208637	7.047799
477	8	8	0	15.422322	6.050408	3.975125
478	8	8	0	14.463792	6.868766	3.310082
479	8	8	0	16.676467	6.779884	9.12833
480	8	8	0	15.613405	6.77264	10.05026
481	9	9	0	2.256861	16.721485	-0.660726
482	9	9	0	1.878491	17.146499	0.622659
483	9	9	0	1.398215	16.906808	-1.794403
484	9	9	0	0.097164	17.413678	-1.57084
485	9	9	0	2.61683	15.00408	-2.03812
486	9	9	0	2.565311	13.607901	-2.123275
487	9	9	0	3.16715	15.601534	-0.853026
488	9	9	0	3.714371	14.862889	0.229543
489	9	9	0	1.647184	15.822464	-2.760217
490	9	9	0	0.5992	15.204382	-3.515096
491	9	9	0	0.5864	17.786502	0.821116
492	9	9	0	-0.313165	17.931869	-0.263216
493	9	9	0	0.168207	17.09371	2.030614
494	9	9	0	-1.163738	16.674269	2.203055
495	9	9	0	2.366053	16.395991	1.769959
496	9	9	0	3.158025	15.25421	1.539474
497	9	9	0	1.229762	16.336197	2.676437
498	9	9	0	0.912834	15.20591	3.471469
499	9	9	0	-1.649948	17.347816	-0.113654
500	9	9	0	-2.072615	16.78849	1.10773
501	9	9	0	-2.127306	16.709866	-1.331232
502	9	9	0	-3.017198	15.619385	-1.278458
503	9	9	0	-0.99615	16.707375	-2.22189
504	9	9	0	-0.758565	15.653896	-3.134282
505	9	9	0	-3.031416	15.682543	1.151325
506	9	9	0	-3.597276	15.101879	-0.022477
507	9	9	0	-2.506805	14.889955	2.237144
508	9	9	0	-2.573064	13.493195	2.156143
509	9	9	0	-1.482485	15.536501	3.058549
510	9	9	0	-0.490344	14.78954	3.764474
511	9	9	0	-3.66749	13.625911	-0.119289
512	9	9	0	-3.11895	12.892904	0.96809
513	9	9	0	-3.120004	13.235615	-1.437193
514	9	9	0	-2.316601	12.099655	-1.660805
515	9	9	0	-2.627293	14.462627	-2.03967
516	9	9	0	-1.576218	14.492867	-2.977225
517	9	9	0	-2.206431	11.773204	0.774045
518	9	9	0	-1.821181	11.355223	-0.509547
519	9	9	0	-1.344538	11.59762	1.903084
520	9	9	0	-0.04376	11.094525	1.675682
521	9	9	0	-1.59586	12.678418	2.87185
522	9	9	0	-0.547055	13.299442	3.623923
523	9	9	0	-0.528357	10.722778	-0.70636
524	9	9	0	0.369291	10.568619	0.374854
525	9	9	0	-0.109135	11.423248	-1.909072
526	9	9	0	1.222758	11.832306	-2.086157
527	9	9	0	-1.169521	12.17515	-2.551478
528	9	9	0	-0.853906	13.301911	-3.349637
529	9	9	0	1.707569	11.14555	0.223608
530	9	9	0	2.134618	11.703788	-0.996843
531	9	9	0	2.183608	11.785524	1.443749
532	9	9	0	3.082401	12.869341	1.393825
533	9	9	0	1.047368	11.800293	2.325976
534	9	9	0	0.807159	12.849871	3.239659
535	9	9	0	3.094775	12.810545	-1.041557
536	9	9	0	3.664993	13.38522	0.134968
537	9	9	0	1.539099	12.966715	-2.944298
538	9	9	0	0.546753	13.714284	-3.647636
539	9	9	0	2.678227	14.027771	2.148114
540	9	9	0	1.624552	14.008609	3.083341
541	10	10	0	9.040016	23.850383	-1.101434
542	10	10	0	8.601144	24.447206	0.099824
543	10	10	0	8.108443	23.613643	-2.161303
544	10	10	0	6.760694	23.983496	-2.000528
545	10	10	0	9.527836	21.894262	-2.150949
546	10	10	0	9.668381	20.504229	-2.024459
547	10	10	0	10.021379	22.755801	-1.105916
548	10	10	0	10.60628	22.228773	0.08526
549	10	10	0	8.469749	22.468268	-2.980391
550	10	10	0	7.502307	21.667906	-3.654946
551	10	10	0	7.231371	24.963548	0.249714
552	10	10	0	6.330813	24.702836	-0.813153
553	10	10	0	6.838535	24.492166	1.585539
554	10	10	0	5.560848	23.934769	1.840986
555	10	10	0	9.084692	23.834362	1.331421
556	10	10	0	10.016543	22.775991	1.321479
557	10	10	0	7.96095	23.821272	2.225384
558	10	10	0	7.776064	22.782638	3.165355
559	10	10	0	5.065162	24.026812	-0.584914
560	10	10	0	4.709825	23.644495	0.71761
561	10	10	0	4.59056	23.229638	-1.704423
562	10	10	0	3.852643	22.060855	-1.417764
563	10	10	0	5.71644	23.191243	-2.636347
564	10	10	0	6.07789	22.041157	-3.38875
565	10	10	0	3.831557	22.508961	0.95664
566	10	10	0	3.316826	21.705715	-0.092317
567	10	10	0	4.427889	21.974987	2.150643
568	10	10	0	4.54164	20.586188	2.286418
569	10	10	0	5.366488	22.859594	2.832249
570	10	10	0	6.447911	22.301114	3.583618
571	10	10	0	3.451016	20.236295	0.051727
572	10	10	0	4.040928	19.719012	1.246453
573	10	10	0	4.037688	19.694715	-1.194123
574	10	10	0	4.98185	18.642806	-1.203382
575	10	10	0	4.348696	20.831759	-2.016137
576	10	10	0	5.412005	20.829235	-2.937694
577	10	10	0	5.022279	18.623494	1.237681
578	10	10	0	5.462822	18.027149	0.035001
579	10	10	0	5.957069	18.886948	2.287785
580	10	10	0	7.303293	18.523592	2.124037
581	10	10	0	5.599788	20.023754	3.120513
582	10	10	0	6.565132	20.827092	3.795372
583	10	10	0	6.835204	17.525486	-0.118177
584	10	10	0	7.728084	17.796627	0.942741
585	10	10	0	7.232666	18.012125	-1.445134
586	10	10	0	8.510145	18.558238	-1.706238
587	10	10	0	6.113371	18.669443	-2.089263
588	10	10	0	6.305969	19.728574	-2.997665
589	10	10	0	8.980207	18.48506	0.718726
590	10	10	0	9.348449	18.857451	-0.584038
591	10	10	0	9.48215	19.254238	1.845476
592	10	10	0	10.231648	20.415337	1.563376
593	10	10	0	8.346031	19.3083	2.764803
594	10	10	0	7.98545	20.454799	3.521405
595	10	10	0	10.263664	19.966124	-0.82355
596	10	10	0	10.775605	20.762315	0.23341
597	10	10	0	8.717726	19.629036	-2.699034
598	10	10	0	7.630648	20.199359	-3.429553
599	10	10	0	9.707984	21.64548	2.145571
600	10	10	0	8.655619	21.664021	3.082332
601	11	11	0	9.202254	16.767407	6.278312
602	11	11	0	8.805826	17.213176	7.549964
603	11	11	0	8.330429	16.877884	5.151697
604	11	11	0	7.020998	17.358101	5.366365
605	11	11	0	9.589853	15.010789	4.941455
606	11	11	0	9.550962	13.611724	4.893075
607	11	11	0	10.126308	15.650557	6.113984
608	11	11	0	10.686516	14.95231	7.220449
609	11	11	0	8.600911	15.789172	4.20087
610	11	11	0	7.567517	15.140462	3.45037
611	11	11	0	7.501325	17.830894	7.734111
612	11	11	0	6.603524	17.921019	6.646336
613	11	11	0	7.084295	17.152806	8.951552
614	11	11	0	5.759448	16.723028	9.138085
615	11	11	0	9.301736	16.490299	8.715686
616	11	11	0	10.132437	15.367807	8.529072
617	11	11	0	8.151345	16.414601	9.595257
618	11	11	0	7.855115	15.30323	10.418631
619	11	11	0	5.278847	17.321124	6.802888
620	11	11	0	4.857876	16.789292	8.035698
621	11	11	0	4.799835	16.663169	5.593573
622	11	11	0	3.92006	15.566196	5.674961
623	11	11	0	5.940305	16.64043	4.712614
624	11	11	0	6.201753	15.580306	3.816502
625	11	11	0	3.908155	15.677389	8.108774
626	11	11	0	3.342893	15.071507	6.946323
627	11	11	0	4.44702	14.918932	9.213651
628	11	11	0	4.428542	13.520181	9.159713
629	11	11	0	5.460423	15.598142	10.01992
630	11	11	0	6.465513	14.878699	10.737008
631	11	11	0	3.331054	13.590311	6.888672
632	11	11	0	3.888338	12.883838	7.989548
633	11	11	0	3.895823	13.17478	5.589763
634	11	11	0	4.710715	12.042985	5.394286
635	11	11	0	4.356543	14.393628	4.955861
636	11	11	0	5.41164	14.406517	4.021736
637	11	11	0	4.811792	11.767666	7.827498
638	11	11	0	5.1982	11.313151	6.555485
639	11	11	0	5.679559	11.642968	8.960225
640	11	11	0	6.989576	11.157199	8.751468
641	11	11	0	5.410982	12.737128	9.905569
642	11	11	0	6.443511	13.382376	10.65961
643	11	11	0	6.502253	10.687661	6.369524
644	11	11	0	7.402687	10.607876	7.46045
645	11	11	0	6.916778	11.352432	5.14083
646	11	11	0	8.242071	11.794605	4.960531
647	11	11	0	5.847139	12.097012	4.493138
648	11	11	0	6.143932	13.213745	3.67302
649	11	11	0	8.724896	11.217812	7.305679
650	11	11	0	9.139524	11.749779	6.071026
651	11	11	0	9.205186	11.872484	8.511529
652	11	11	0	10.072794	12.977809	8.426021
653	11	11	0	8.073498	11.876173	9.406296
654	11	11	0	7.814704	12.941896	10.300327
655	11	11	0	10.088127	12.859616	6.000834
656	11	11	0	10.648719	13.47305	7.159058
657	11	11	0	8.541753	12.925911	4.084499
658	11	11	0	7.537725	13.64375	3.362404
659	11	11	0	9.654062	14.149244	9.154051
660	11	11	0	8.601969	14.120398	10.090665
661	12	12	0	2.270288	23.734726	6.168444
662	12	12	0	1.863484	24.215763	7.426775
663	12	12	0	1.390434	23.804669	5.050178
664	12	12	0	0.083414	24.269119	5.27552
665	12	12	0	2.620814	21.929446	4.918739
666	12	12	0	2.563849	20.529518	4.916995
667	12	12	0	3.210783	22.618217	6.049368
668	12	12	0	3.761075	21.948307	7.18262
669	12	12	0	1.637035	22.683982	4.143635
670	12	12	0	0.594357	22.024019	3.422619
671	12	12	0	0.581733	24.877529	7.606814
672	12	12	0	-0.31716	24.912389	6.519976
673	12	12	0	0.159231	24.271201	8.859435
674	12	12	0	-1.169637	23.844088	9.051309
675	12	12	0	2.357889	23.531178	8.615291
676	12	12	0	3.190039	22.402912	8.473774
677	12	12	0	1.220982	23.525171	9.513377
678	12	12	0	0.910246	22.440831	10.367609
679	12	12	0	-1.65574	24.362307	6.689878
680	12	12	0	-2.069136	23.872233	7.943101
681	12	12	0	-2.163552	23.680373	5.499031
682	12	12	0	-3.051033	22.590253	5.634184
683	12	12	0	-1.012043	23.589981	4.624957
684	12	12	0	-0.764285	22.481416	3.790507
685	12	12	0	-3.024044	22.769749	8.061326
686	12	12	0	-3.617344	22.137277	6.928318
687	12	12	0	-2.512254	22.052497	9.200203
688	12	12	0	-2.545953	20.653314	9.191439
689	12	12	0	-1.487291	22.748267	9.971935
690	12	12	0	-0.482821	22.038927	10.703539
691	12	12	0	-3.669872	20.652879	6.932264
692	12	12	0	-3.128209	19.972132	8.060111
693	12	12	0	-3.103143	20.191933	5.648764
694	12	12	0	-2.294693	19.048835	5.497163
695	12	12	0	-2.631654	21.378014	4.967194
696	12	12	0	-1.573094	21.334262	4.040066
697	12	12	0	-2.212314	18.840613	7.938574
698	12	12	0	-1.820754	18.350231	6.680556
699	12	12	0	-1.324993	18.764452	9.058386
700	12	12	0	-0.019242	18.275477	8.851919
701	12	12	0	-1.566531	19.889666	9.964101
702	12	12	0	-0.525506	20.542095	10.695871
703	12	12	0	-0.527666	17.693274	6.504211
704	12	12	0	0.377855	17.652918	7.592099
705	12	12	0	-0.10359	18.290463	5.244977
706	12	12	0	1.227044	18.722684	5.054722
707	12	12	0	-1.167367	19.037052	4.585405
708	12	12	0	-0.85625	20.123254	3.730573
709	12	12	0	1.714162	18.219153	7.419614
710	12	12	0	2.123613	18.714618	6.168412
711	12	12	0	2.220997	18.908989	8.602738
712	12	12	0	3.102864	20.002627	8.468038
713	12	12	0	1.079562	18.977584	9.4884
714	12	12	0	0.838707	20.078751	10.340911
715	12	12	0	3.078999	19.818271	6.055632
716	12	12	0	3.676086	20.460097	7.182286
717	12	12	0	1.545401	19.823662	4.140608
718	12	12	0	0.542295	20.527388	3.401178
719	12	12	0	2.693306	21.213871	9.140264
720	12	12	0	1.638537	21.238085	10.075106
721	13	13	0	2.202053	2.733751	13.294632
722	13	13	0	1.829822	3.166346	14.576699
723	13	13	0	1.32965	2.894472	12.170122
724	13	13	0	0.025041	3.392309	12.397409
725	13	13	0	2.56848	1.009838	11.934105
726	13	13	0	2.536782	-0.387956	11.865023
727	13	13	0	3.125014	1.621249	13.109826
728	13	13	0	3.694894	0.897659	14.193551
729	13	13	0	1.586965	1.809801	11.206647
730	13	13	0	0.539677	1.179219	10.459927
731	13	13	0	0.532206	3.793238	14.779141
732	13	13	0	-0.378121	3.920201	13.701879
733	13	13	0	0.130761	3.103361	15.996653
734	13	13	0	-1.195196	2.675254	16.182137
735	13	13	0	2.335243	2.42453	15.724959
736	13	13	0	3.152047	1.295987	15.509015
737	13	13	0	1.20364	2.359779	16.632461
738	13	13	0	0.90916	1.23352	17.43885
739	13	13	0	-1.708667	3.327061	13.865674
740	13	13	0	-2.115064	2.771855	15.095134
741	13	13	0	-2.190223	2.674694	12.655614
742	13	13	0	-3.069813	1.575363	12.72857
743	13	13	0	-1.068696	2.68006	11.749699
744	13	13	0	-0.823879	1.623739	10.840736
745	13	13	0	-3.067283	1.659094	15.156213
746	13	13	0	-3.642804	1.064593	13.992904
747	13	13	0	-2.513964	0.878412	16.238456
748	13	13	0	-2.560952	-0.51893	16.172062
749	13	13	0	-1.490878	1.539322	17.046329
750	13	13	0	-0.485422	0.809727	17.750102
751	13	13	0	-3.690347	-0.417017	13.909878
752	13	13	0	-3.11914	-1.135789	14.99752
753	13	13	0	-3.146695	-0.813889	12.590666