
#--------------------------------------------------------------------------
#nve rescale
#--------------------------------------------------------------------------
	velocity 		all create ${T_run} ${seed} rot yes dist gaussian
	velocity 		all create 300 ${seed} rot yes dist gaussian
	velocity 		all create 300 66666 rot yes dist gaussian

	fix 			1 all nve
	fix 			2 all temp/rescale 1 ${T_run} ${T_run} 0.01 1.0
	fix 			2 all temp/rescale 1 300 ${T_run} 0.01 1.0
	fix 			2 all temp/rescale 1 300 300 0.01 1.0
	timestep		${dt}
	timestep		0.0010000000000000000208
	thermo_style  		custom step temp press etotal vol
	thermo			1000
	run             	100000
Memory usage per processor = 4.35585 Mbytes
Step Temp Press TotEng Volume 
       0          300    177883.56   -1574.5439     2924.207 
    1000          300   -5630.7804   -1595.8858     2924.207 
    2000          300    13057.124    -1597.027     2924.207 
    3000          300    23847.196   -1597.4959     2924.207 
    4000          300    22466.282   -1597.6918     2924.207 
    5000          300    2104.8736   -1597.5819     2924.207 
    6000          300   -7923.6933   -1597.2652     2924.207 
    7000          300   -27446.124   -1596.7014     2924.207 
    8000          300   -8462.9216   -1597.6627     2924.207 
    9000          300    10474.055    -1597.488     2924.207 
   10000          300    16066.141   -1597.8025     2924.207 
   11000          300    9563.9884   -1597.5501     2924.207 
   12000          300    703.13702   -1597.3821     2924.207 
   13000          300   -6353.9363   -1596.9152     2924.207 
   14000          300    1064.2797   -1597.6087     2924.207 
   15000          300    17309.631   -1597.7715     2924.207 
   16000          300    5231.5349   -1597.7233     2924.207 
   17000          300   -3955.7928   -1597.7855     2924.207 
   18000          300   -7702.8038   -1597.3585     2924.207 
   19000          300    4261.0478   -1597.8287     2924.207 
   20000          300    14667.776   -1597.2804     2924.207 
   21000          300    12013.771   -1598.1599     2924.207 
   22000          300    463.36081   -1597.8405     2924.207 
   23000          300   -1749.2019   -1597.4631     2924.207 
   24000          300    7898.4969   -1597.0208     2924.207 
   25000          300    14494.765    -1597.793     2924.207 
   26000          300    4309.2858   -1597.8475     2924.207 
   27000          300    1422.4204   -1597.7415     2924.207 
   28000          300    4527.8653   -1597.6882     2924.207 
   29000          300      16120.7   -1597.4976     2924.207 
   30000          300    5097.4647   -1597.8276     2924.207 
   31000          300   -1992.5462   -1597.2223     2924.207 
   32000          300    5002.6959   -1597.1498     2924.207 
   33000          300    16860.989   -1597.3201     2924.207 
   34000          300    10197.794   -1597.4852     2924.207 
   35000          300   -231.32813   -1597.2789     2924.207 
   36000          300    4406.0018   -1597.3188     2924.207 
   37000          300    15284.489    -1597.905     2924.207 
   38000          300    9319.2633   -1597.6859     2924.207 
   39000          300    372.57021    -1597.331     2924.207 
   40000          300    382.01659   -1597.9026     2924.207 
   41000          300    16770.456   -1598.1173     2924.207 
   42000          300    8757.1195   -1597.8905     2924.207 
   43000          300    4125.7422   -1597.5976     2924.207 
   44000          300    4147.6032   -1596.6895     2924.207 
   45000          300    16310.932    -1597.264     2924.207 
   46000          300     8703.433   -1597.6753     2924.207 
   47000          300    5086.7269   -1598.5347     2924.207 
   48000          300    9814.5645   -1598.0129     2924.207 
   49000          300    6943.1937   -1597.8077     2924.207 
   50000          300    1604.5646   -1598.3371     2924.207 
   51000          300    16115.348   -1597.5019     2924.207 
   52000          300    394.91868   -1597.7483     2924.207 
   53000          300    15986.817   -1597.3318     2924.207 
   54000          300    7489.1488   -1597.1284     2924.207 
   55000          300     3751.067   -1598.4021     2924.207 
   56000          300     14089.74   -1598.6275     2924.207 
   57000          300    11669.032   -1596.8304     2924.207 
   58000          300    11288.641     -1598.83     2924.207 
   59000          300    18091.781   -1597.3819     2924.207 
   60000          300    6273.0846   -1599.0602     2924.207 
   61000          300    18346.528   -1597.8564     2924.207 
   62000          300    1348.5074   -1598.3943     2924.207 
   63000          300    7891.2291   -1597.9602     2924.207 
   64000          300    17962.972   -1597.0774     2924.207 
   65000          300    12038.059   -1597.5474     2924.207 
   66000          300    12223.139   -1598.3733     2924.207 
   67000          300    7770.4374   -1598.7073     2924.207 
   68000          300    10975.841   -1597.8619     2924.207 
   69000          300     12306.25   -1599.1446     2924.207 
   70000          300    6427.1032    -1598.782     2924.207 
   71000          300    4184.8659   -1598.9038     2924.207 
   72000          300    16786.901     -1599.02     2924.207 
   73000          300    6886.2412   -1599.2134     2924.207 
   74000          300    14986.236   -1598.3475     2924.207 
   75000          300    16538.291   -1599.0888     2924.207 
   76000          300   -612.04739   -1599.3121     2924.207 
   77000          300    13013.919   -1598.7487     2924.207 
   78000          300    17248.909   -1598.9285     2924.207 
   79000          300    6016.9765   -1599.6049     2924.207 
   80000          300     16308.66    -1599.278     2924.207 
   81000          300    16055.507   -1599.6722     2924.207 
   82000          300   -1124.3955    -1598.825     2924.207 
   83000          300    20643.852   -1599.1118     2924.207 
   84000          300     11532.51   -1600.5299     2924.207 
   85000          300    15769.503   -1599.4387     2924.207 
   86000          300    16790.319   -1599.2052     2924.207 
   87000          300    5081.6355    -1600.464     2924.207 
   88000          300    9530.8238   -1599.4124     2924.207 
   89000          300    13881.394    -1599.944     2924.207 
   90000          300    11829.031   -1600.6722     2924.207 
   91000          300     5741.868   -1600.6288     2924.207 
   92000          300     19332.29   -1599.2711     2924.207 
   93000          300    12091.315   -1599.8774     2924.207 
   94000          300    17453.098   -1600.0546     2924.207 
   95000          300    11361.296   -1600.7876     2924.207 
   96000          300    15003.365   -1600.5996     2924.207 
   97000          300    6673.0408   -1600.7959     2924.207 
   98000          300    25567.842   -1599.5244     2924.207 
   99000          300    12249.432   -1601.0568     2924.207 
  100000          300    13073.409   -1600.4419     2924.207 
Loop time of 648.054 on 2 procs for 100000 steps with 240 atoms

Pair  time (%) = 621.443 (95.8937)
Bond  time (%) = 0.0235072 (0.00362736)
Neigh time (%) = 2.14684 (0.331274)
Comm  time (%) = 22.8318 (3.52314)
Outpt time (%) = 0.00285733 (0.000440909)
Other time (%) = 1.60585 (0.247796)

Nlocal:    120 ave 126 max 114 min
Histogram: 1 0 0 0 0 0 0 0 0 1
Nghost:    5113 ave 5153 max 5073 min
Histogram: 1 0 0 0 0 0 0 0 0 1
Neighs:    45593 ave 47570 max 43616 min
Histogram: 1 0 0 0 0 0 0 0 0 1
FullNghs:  91186 ave 95188 max 87184 min
Histogram: 1 0 0 0 0 0 0 0 0 1

Total # of neighbors = 182372
Ave neighs/atom = 759.883
Ave special neighs/atom = 0
Neighbor list builds = 500
Dangerous builds = 0
#	run             	1000
	unfix 			1
	unfix 			2
#--------------------------------------------------------------------------
#nve
#--------------------------------------------------------------------------
	fix 			1 all nve
	timestep		${dt}
	timestep		0.0010000000000000000208
	thermo_style  		custom step temp press etotal vol
	thermo			1000
	run             	100000
Memory usage per processor = 4.81552 Mbytes
Step Temp Press TotEng Volume 
  100000          300    13073.409   -1600.4419     2924.207 
  101000    330.89719    13765.483   -1600.4409     2924.207 
  102000    295.09219    8848.9999   -1600.4457     2924.207 
  103000    295.80604    12405.301   -1600.4382     2924.207 
  104000    323.25331    13529.969   -1600.4409     2924.207 
  105000     309.0961    11196.473   -1600.4389     2924.207 
  106000    292.57151    14850.127    -1600.442     2924.207 
  107000    297.35246    12673.452   -1600.4454     2924.207 
  108000    289.99035    12193.011   -1600.4397     2924.207 
  109000    317.43628    15822.422   -1600.4465     2924.207 
  110000    325.79984    12681.998   -1600.4397     2924.207 
  111000    264.02828    19710.608   -1600.4397     2924.207 
  112000    293.18952    11640.182   -1600.4414     2924.207 
  113000    286.67368    18295.951   -1600.4378     2924.207 
  114000    308.56848    11403.699   -1600.4381     2924.207 
  115000    304.13186    16617.992   -1600.4388     2924.207 
  116000    301.01861    9914.8039   -1600.4369     2924.207 
  117000    295.74961    23496.967   -1600.4426     2924.207 
  118000    313.93274    7429.2276   -1600.4429     2924.207 
  119000    288.27462    19175.263   -1600.4429     2924.207 
  120000    315.74519    8937.1516   -1600.4391     2924.207 
  121000    320.59785    11889.019   -1600.4409     2924.207 
  122000    275.02561    20808.269   -1600.4375     2924.207 
  123000    284.10697    11737.643   -1600.4417     2924.207 
  124000    305.92994    11432.786   -1600.4395     2924.207 
  125000    302.04906    8410.3942   -1600.4376     2924.207 
  126000    288.77986    17608.551   -1600.4361     2924.207 
  127000    295.54334    13365.274   -1600.4409     2924.207 
  128000    314.97947    6749.8545   -1600.4425     2924.207 
  129000     288.2471    16533.666   -1600.4413     2924.207 
  130000    318.14623    10689.066   -1600.4508     2924.207 
  131000      296.923     12556.62   -1600.4403     2924.207 
  132000    299.05883    21864.843   -1600.4479     2924.207 
  133000    291.07756    10361.263   -1600.4368     2924.207 
  134000     244.4689    20121.542    -1600.435     2924.207 
  135000    278.30836    14162.206     -1600.44     2924.207 
  136000    313.96007    9649.8983   -1600.4439     2924.207 
  137000    248.63333    26356.815   -1600.4467     2924.207 
  138000    270.83246    9023.8785   -1600.4414     2924.207 
  139000    281.25926    19193.437   -1600.4396     2924.207 
  140000    251.87054    16607.707    -1600.443     2924.207 
  141000    273.49342    12790.329   -1600.4427     2924.207 
  142000     270.6366    22067.327   -1600.4377     2924.207 
  143000    262.17303    16033.404   -1600.4376     2924.207 
  144000    285.30985    16586.062   -1600.4407     2924.207 
  145000     281.3679     20622.14   -1600.4422     2924.207 
  146000    283.28216    17786.184   -1600.4412     2924.207 
  147000    308.27175    11078.187   -1600.4427     2924.207 
  148000    261.05348    24771.739   -1600.4341     2924.207 
  149000    277.44906    9250.6575   -1600.4385     2924.207 
  150000    271.70458    14458.687   -1600.4373     2924.207 
  151000    307.54253    6501.2918    -1600.439     2924.207 
  152000    266.56688    10787.266   -1600.4355     2924.207 
  153000    308.69053     19741.99   -1600.4453     2924.207 
  154000    273.05821    10023.529   -1600.4386     2924.207 
  155000    297.49285    17237.905   -1600.4398     2924.207 
  156000    292.11063    11350.499   -1600.4399     2924.207 
  157000    291.01582    22017.145   -1600.4512     2924.207 
  158000    274.44494    17853.548   -1600.4381     2924.207 
  159000    296.34787    14340.824   -1600.4383     2924.207 
  160000     307.5355    11280.731   -1600.4484     2924.207 
  161000    298.78026    8273.2911   -1600.4379     2924.207 
  162000    298.47347    11440.992   -1600.4423     2924.207 
  163000     307.6522    11293.898   -1600.4448     2924.207 
  164000    310.32313    8814.5407    -1600.444     2924.207 
  165000    308.61503    12119.921   -1600.4427     2924.207 
  166000     297.1617    12458.155   -1600.4429     2924.207 
  167000     280.2623    10211.549   -1600.4422     2924.207 
  168000    283.36534    16902.409   -1600.4334     2924.207 
  169000     291.7862    9599.1151   -1600.4472     2924.207 
  170000    304.67308    12596.423   -1600.4421     2924.207 
  171000    284.83437     5613.202   -1600.4429     2924.207 
  172000    276.06102    20856.497   -1600.4494     2924.207 
  173000    315.00161    11314.719   -1600.4428     2924.207 
  174000    277.20251    18493.491   -1600.4409     2924.207 
  175000    291.14334    18233.764   -1600.4463     2924.207 
  176000    273.63236    11438.907   -1600.4405     2924.207 
  177000     307.2984     15500.53   -1600.4447     2924.207 
  178000     285.2356    20103.967   -1600.4404     2924.207 
  179000    304.25564    15694.778   -1600.4523     2924.207 
  180000    281.78781    12238.595    -1600.444     2924.207 
  181000    302.66804    7242.7623   -1600.4437     2924.207 
  182000    290.77562    18902.934   -1600.4424     2924.207 
  183000    249.72634    16475.542   -1600.4429     2924.207 
  184000    288.91067    16065.569    -1600.445     2924.207 
  185000    285.96909    10089.665   -1600.4465     2924.207 
  186000    280.33327    19599.655   -1600.4341     2924.207 
  187000    275.35931    10895.198   -1600.4341     2924.207 
  188000    308.85103    12331.898   -1600.4404     2924.207 
  189000    291.55003    9708.4844    -1600.438     2924.207 
  190000    313.09511    12162.287   -1600.4376     2924.207 
  191000     290.2605    11074.254   -1600.4488     2924.207 
  192000    286.47865    15139.455    -1600.445     2924.207 
  193000    276.63412    12251.646   -1600.4437     2924.207 
  194000    298.89421    13964.309     -1600.44     2924.207 
  195000     267.6046    13356.713   -1600.4433     2924.207 
  196000    287.52671    13491.519    -1600.436     2924.207 
  197000    278.23396    14761.496   -1600.4453     2924.207 
  198000    302.92772    4607.3456   -1600.4412     2924.207 
  199000    297.77029    12103.691   -1600.4474     2924.207 
  200000    315.24798    8456.0625   -1600.4437     2924.207 
Loop time of 662.513 on 2 procs for 100000 steps with 240 atoms

Pair  time (%) = 632.713 (95.5019)
Bond  time (%) = 0.0250063 (0.00377446)
Neigh time (%) = 4.01304 (0.605731)
Comm  time (%) = 24.422 (3.68627)
Outpt time (%) = 0.0031594 (0.000476882)
Other time (%) = 1.33701 (0.201809)

Nlocal:    120 ave 123 max 117 min
Histogram: 1 0 0 0 0 0 0 0 0 1
Nghost:    5070 ave 5076 max 5064 min
Histogram: 1 0 0 0 0 0 0 0 0 1
Neighs:    45558.5 ave 46749 max 44368 min
Histogram: 1 0 0 0 0 0 0 0 0 1
FullNghs:  91117 ave 93392 max 88842 min
Histogram: 1 0 0 0 0 0 0 0 0 1

Total # of neighbors = 182234
Ave neighs/atom = 759.308
Ave special neighs/atom = 0
Neighbor list builds = 922
Dangerous builds = 0
#	run             	10000
	unfix 			1
#--------------------------------------------------------------------------
#kappa
#--------------------------------------------------------------------------
log 	log_kappa_${iseed}.lammps
log 	log_kappa_6.lammps
