
#--------------------------------------------------------------------------
#nve rescale
#--------------------------------------------------------------------------
	velocity 		all create ${T_run} ${seed} rot yes dist gaussian
	velocity 		all create 300 ${seed} rot yes dist gaussian
	velocity 		all create 300 44444 rot yes dist gaussian

	fix 			1 all nve
	fix 			2 all temp/rescale 1 ${T_run} ${T_run} 0.01 1.0
	fix 			2 all temp/rescale 1 300 ${T_run} 0.01 1.0
	fix 			2 all temp/rescale 1 300 300 0.01 1.0
	timestep		${dt}
	timestep		0.0010000000000000000208
	thermo_style  		custom step temp press etotal vol
	thermo			1000
	run             	100000
Memory usage per processor = 4.35585 Mbytes
Step Temp Press TotEng Volume 
       0          300    177883.56   -1574.5439     2924.207 
    1000          300    6469.7972   -1594.6581     2924.207 
    2000          300    20519.609   -1598.2283     2924.207 
    3000          300    30603.344   -1596.7045     2924.207 
    4000          300    27627.327    -1598.187     2924.207 
    5000          300    224.05207   -1597.7313     2924.207 
    6000          300   -21662.695   -1597.6507     2924.207 
    7000          300   -13615.901    -1597.295     2924.207 
    8000          300    19578.059   -1597.1334     2924.207 
    9000          300    43625.053   -1597.2954     2924.207 
   10000          300    22145.975   -1597.1726     2924.207 
   11000          300    294.18301   -1598.0486     2924.207 
   12000          300   -15015.215   -1596.9533     2924.207 
   13000          300   -6014.5747   -1597.1919     2924.207 
   14000          300    20057.423   -1597.2652     2924.207 
   15000          300    26966.146   -1597.8974     2924.207 
   16000          300    5836.8326   -1597.6501     2924.207 
   17000          300   -1055.4967   -1597.5229     2924.207 
   18000          300   -7465.1861   -1597.6307     2924.207 
   19000          300    8558.2508   -1598.0033     2924.207 
   20000          300    18757.693   -1597.2651     2924.207 
   21000          300    5810.6353   -1597.0928     2924.207 
   22000          300   -5167.1156   -1597.3465     2924.207 
   23000          300   -159.03928   -1597.9045     2924.207 
   24000          300    12731.309   -1598.1211     2924.207 
   25000          300    14488.992   -1597.1474     2924.207 
   26000          300    10422.986   -1597.3099     2924.207 
   27000          300   -5955.2101   -1597.1357     2924.207 
   28000          300    3826.8045   -1597.5381     2924.207 
   29000          300    10262.708   -1598.4579     2924.207 
   30000          300    7771.0236   -1597.4215     2924.207 
   31000          300    968.53866   -1597.4432     2924.207 
   32000          300    3782.7882   -1597.5035     2924.207 
   33000          300    5533.3895   -1597.4752     2924.207 
   34000          300    16722.273   -1597.8554     2924.207 
   35000          300    11863.542   -1597.4549     2924.207 
   36000          300   -1256.9684   -1597.9863     2924.207 
   37000          300    9031.5747   -1597.8115     2924.207 
   38000          300    5494.0029   -1596.9965     2924.207 
   39000          300    4003.1421   -1597.7356     2924.207 
   40000          300    6968.6202   -1596.6716     2924.207 
   41000          300    9814.2524    -1597.586     2924.207 
   42000          300    6892.8203   -1597.3603     2924.207 
   43000          300    3340.5922   -1597.6734     2924.207 
   44000          300     6955.595   -1598.0495     2924.207 
   45000          300     19932.56    -1598.039     2924.207 
   46000          300    3275.6861    -1597.015     2924.207 
   47000          300    877.90438   -1597.7089     2924.207 
   48000          300    9923.7375   -1597.6833     2924.207 
   49000          300    19630.613   -1598.1094     2924.207 
   50000          300     1296.677   -1597.8879     2924.207 
   51000          300    3673.8039   -1597.1451     2924.207 
   52000          300    23476.014   -1597.8206     2924.207 
   53000          300    3483.8367   -1598.1726     2924.207 
   54000          300    2634.1123   -1597.9254     2924.207 
   55000          300    19280.777   -1597.8773     2924.207 
   56000          300    3184.5441   -1597.5134     2924.207 
   57000          300    3336.6738   -1597.4327     2924.207 
   58000          300    7537.6401   -1597.8516     2924.207 
   59000          300     11887.56   -1597.0062     2924.207 
   60000          300    13587.804   -1598.6212     2924.207 
   61000          300    54.922199   -1598.2903     2924.207 
   62000          300    17900.254   -1597.9628     2924.207 
   63000          300    8581.5945   -1597.7552     2924.207 
   64000          300     6490.993   -1597.6648     2924.207 
   65000          300    10150.118    -1597.774     2924.207 
   66000          300    14577.832   -1596.8013     2924.207 
   67000          300    9283.0587   -1598.2572     2924.207 
   68000          300    14179.356   -1597.5967     2924.207 
   69000          300     7854.561    -1598.294     2924.207 
   70000          300    9280.5436   -1598.9383     2924.207 
   71000          300    12066.364   -1598.0901     2924.207 
   72000          300    11482.186   -1598.4341     2924.207 
   73000          300    16195.495   -1597.7875     2924.207 
   74000          300     11347.74   -1598.3251     2924.207 
   75000          300    13864.554   -1597.8555     2924.207 
   76000          300    7789.2845   -1598.1977     2924.207 
   77000          300    23274.029   -1598.3047     2924.207 
   78000          300    12990.991   -1598.1309     2924.207 
   79000          300     9536.224   -1598.7273     2924.207 
   80000          300    12681.118   -1599.0482     2924.207 
   81000          300    11365.571   -1598.1147     2924.207 
   82000          300   -870.39018   -1599.1357     2924.207 
   83000          300    18222.917   -1598.8319     2924.207 
   84000          300    7228.6526    -1599.705     2924.207 
   85000          300    6306.0669    -1599.737     2924.207 
   86000          300    12672.665   -1598.7176     2924.207 
   87000          300    10706.058   -1598.8067     2924.207 
   88000          300     14652.69   -1599.4728     2924.207 
   89000          300    13092.585   -1600.0291     2924.207 
   90000          300    2412.6012   -1599.2066     2924.207 
   91000          300    15886.023   -1600.0108     2924.207 
   92000          300    13915.437   -1599.9314     2924.207 
   93000          300    8643.7014   -1599.9238     2924.207 
   94000          300    11053.001   -1599.8494     2924.207 
   95000          300    4323.6144   -1600.2721     2924.207 
   96000          300     9370.148   -1600.0791     2924.207 
   97000          300    9760.2223   -1600.0057     2924.207 
   98000          300      17291.5   -1599.7122     2924.207 
   99000          300    6205.3913   -1600.2495     2924.207 
  100000          300    13652.357   -1600.0936     2924.207 
Loop time of 645.792 on 2 procs for 100000 steps with 240 atoms

Pair  time (%) = 618.588 (95.7875)
Bond  time (%) = 0.0236561 (0.00366312)
Neigh time (%) = 1.71374 (0.265371)
Comm  time (%) = 23.8653 (3.69551)
Outpt time (%) = 0.00288439 (0.000446643)
Other time (%) = 1.5983 (0.247495)

Nlocal:    120 ave 123 max 117 min
Histogram: 1 0 0 0 0 0 0 0 0 1
Nghost:    5068.5 ave 5088 max 5049 min
Histogram: 1 0 0 0 0 0 0 0 0 1
Neighs:    45513 ave 46673 max 44353 min
Histogram: 1 0 0 0 0 0 0 0 0 1
FullNghs:  91026 ave 93193 max 88859 min
Histogram: 1 0 0 0 0 0 0 0 0 1

Total # of neighbors = 182052
Ave neighs/atom = 758.55
Ave special neighs/atom = 0
Neighbor list builds = 401
Dangerous builds = 0
#	run             	1000
	unfix 			1
	unfix 			2
#--------------------------------------------------------------------------
#nve
#--------------------------------------------------------------------------
	fix 			1 all nve
	timestep		${dt}
	timestep		0.0010000000000000000208
	thermo_style  		custom step temp press etotal vol
	thermo			1000
	run             	100000
Memory usage per processor = 4.81552 Mbytes
Step Temp Press TotEng Volume 
  100000          300    13652.357   -1600.0936     2924.207 
  101000     307.3622     13719.67   -1600.1023     2924.207 
  102000    294.83262    8051.6048   -1600.0874     2924.207 
  103000    294.39157    9658.9542   -1600.0934     2924.207 
  104000      288.292    6289.5935   -1600.0922     2924.207 
  105000    293.00843    15412.996   -1600.0932     2924.207 
  106000    303.01128    5229.6173   -1600.1006     2924.207 
  107000    273.46137    21390.629   -1600.0982     2924.207 
  108000    291.23731    11088.647   -1600.0905     2924.207 
  109000     285.3917    13998.382   -1600.1027     2924.207 
  110000    300.46345    17372.979    -1600.106     2924.207 
  111000    286.09112    13754.421   -1600.0918     2924.207 
  112000    280.38589    10777.784   -1600.0924     2924.207 
  113000    302.28833    19322.706   -1600.0966     2924.207 
  114000    282.31601     15199.74   -1600.1053     2924.207 
  115000    288.09344    17882.206   -1600.0899     2924.207 
  116000    263.95403    18548.722   -1600.0998     2924.207 
  117000    271.36665    21659.062   -1600.0986     2924.207 
  118000    302.73879     10256.94   -1600.0977     2924.207 
  119000    251.32789    24832.451   -1600.1049     2924.207 
  120000    276.09192     14864.03   -1600.0923     2924.207 
  121000    290.83447    14491.999   -1600.1003     2924.207 
  122000    241.84521    18296.632   -1600.0892     2924.207 
  123000    296.85202    7794.7156   -1600.0957     2924.207 
  124000    257.94344    17188.802   -1600.0971     2924.207 
  125000    309.29209    14672.699   -1600.1002     2924.207 
  126000    292.93878    18345.687   -1600.0976     2924.207 
  127000    279.06794     17013.71   -1600.0963     2924.207 
  128000    294.24095     13110.06   -1600.0944     2924.207 
  129000    280.24538    12931.927   -1600.0894     2924.207 
  130000    261.38718    13304.289   -1600.0958     2924.207 
  131000    286.84341    6739.0949    -1600.093     2924.207 
  132000    293.89251     10760.72   -1600.0933     2924.207 
  133000    291.02253    8960.7052   -1600.0954     2924.207 
  134000    276.45275    16172.334   -1600.0951     2924.207 
  135000    301.39511    7439.0077   -1600.0984     2924.207 
  136000    277.30113    18285.187   -1600.0945     2924.207 
  137000    273.78945    8824.9874   -1600.0956     2924.207 
  138000    307.30425    14035.126   -1600.0964     2924.207 
  139000    252.35227    15864.592   -1600.0919     2924.207 
  140000    284.56043     14566.34   -1600.0964     2924.207 
  141000     272.1607    13972.399   -1600.1034     2924.207 
  142000    276.55064     13952.66   -1600.0957     2924.207 
  143000    302.96213    10144.893   -1600.1005     2924.207 
  144000    273.71242     9017.057   -1600.0983     2924.207 
  145000    278.97325     19536.04   -1600.1056     2924.207 
  146000    294.81348    7770.6077   -1600.1034     2924.207 
  147000    298.88172    7506.6864   -1600.0958     2924.207 
  148000    285.16827    12774.798   -1600.1005     2924.207 
  149000    310.77824     8073.968   -1600.1052     2924.207 
  150000    271.57551    14255.866   -1600.0936     2924.207 
  151000    273.90314    19711.738   -1600.1039     2924.207 
  152000    272.32036    12855.109    -1600.096     2924.207 
  153000    307.74342    10503.928   -1600.1019     2924.207 
  154000    250.28213    15365.272   -1600.1002     2924.207 
  155000      248.014    17444.899   -1600.0966     2924.207 
  156000    267.73353    17312.881   -1600.0964     2924.207 
  157000    262.02336    20143.053   -1600.0963     2924.207 
  158000    288.92438    11116.834   -1600.1003     2924.207 
  159000    256.20958    21868.311   -1600.1014     2924.207 
  160000    264.02624    17110.069   -1600.0992     2924.207 
  161000     293.6614     12111.12   -1600.0926     2924.207 
  162000    252.42769    16969.666   -1600.1001     2924.207 
  163000    280.49724    16464.286   -1600.0955     2924.207 
  164000    260.15626    14216.713   -1600.0913     2924.207 
  165000     270.3245    19511.848   -1600.0943     2924.207 
  166000    254.07874    19483.116   -1600.0982     2924.207 
  167000    280.36759    12459.941   -1600.1048     2924.207 
  168000    273.28022    14145.856   -1600.0988     2924.207 
  169000    256.94382    16649.845   -1600.0975     2924.207 
  170000    268.44643    19797.586   -1600.0976     2924.207 
  171000    288.03267     16155.79   -1600.0966     2924.207 
  172000    253.94982    11446.041   -1600.0988     2924.207 
  173000    271.73565    12488.255   -1600.1003     2924.207 
  174000     291.2445    11488.939   -1600.0934     2924.207 
  175000    253.78712    11481.173    -1600.099     2924.207 
  176000    286.73024    14690.061   -1600.0905     2924.207 
  177000    278.36112    12868.751   -1600.0928     2924.207 
  178000    251.33939    18083.263   -1600.0889     2924.207 
  179000    294.11608    10781.129   -1600.1027     2924.207 
  180000    282.49219    13245.151   -1600.1012     2924.207 
  181000    287.02617    17428.099   -1600.1015     2924.207 
  182000    239.64862    14956.881   -1600.0985     2924.207 
  183000    290.65092    18178.003    -1600.102     2924.207 
  184000    309.13022     2494.566   -1600.1017     2924.207 
  185000    262.33773    17384.077   -1600.0998     2924.207 
  186000    289.00443    9475.0119   -1600.0976     2924.207 
  187000    279.95737    16580.642   -1600.1008     2924.207 
  188000    275.87291    6596.2661    -1600.093     2924.207 
  189000     295.8522    18424.639   -1600.0995     2924.207 
  190000    265.67532    12718.143   -1600.0982     2924.207 
  191000    263.67991    18369.146   -1600.0944     2924.207 
  192000    304.25244    11587.187   -1600.0991     2924.207 
  193000    262.10775    17557.129   -1600.1003     2924.207 
  194000     284.6365    11846.404   -1600.0974     2924.207 
  195000    274.47093     14332.48    -1600.096     2924.207 
  196000    293.07755    6890.6231   -1600.0999     2924.207 
  197000    253.53916    19523.756   -1600.0943     2924.207 
  198000    285.00116    11025.527   -1600.0991     2924.207 
  199000    270.57637    10423.712   -1600.0908     2924.207 
  200000    260.48116    16258.542   -1600.0915     2924.207 
Loop time of 661.903 on 2 procs for 100000 steps with 240 atoms

Pair  time (%) = 630.939 (95.322)
Bond  time (%) = 0.0255361 (0.00385798)
Neigh time (%) = 3.25196 (0.491305)
Comm  time (%) = 26.337 (3.97899)
Outpt time (%) = 0.00320482 (0.000484183)
Other time (%) = 1.34592 (0.203342)

Nlocal:    120 ave 121 max 119 min
Histogram: 1 0 0 0 0 0 0 0 0 1
Nghost:    5081.5 ave 5095 max 5068 min
Histogram: 1 0 0 0 0 0 0 0 0 1
Neighs:    45632.5 ave 45884 max 45381 min
Histogram: 1 0 0 0 0 0 0 0 0 1
FullNghs:  91265 ave 91798 max 90732 min
Histogram: 1 0 0 0 0 0 0 0 0 1

Total # of neighbors = 182530
Ave neighs/atom = 760.542
Ave special neighs/atom = 0
Neighbor list builds = 749
Dangerous builds = 0
#	run             	10000
	unfix 			1
#--------------------------------------------------------------------------
#kappa
#--------------------------------------------------------------------------
log 	log_kappa_${iseed}.lammps
log 	log_kappa_4.lammps
