
#--------------------------------------------------------------------------
#nve rescale
#--------------------------------------------------------------------------
	velocity 		all create ${T_run} ${seed} rot yes dist gaussian
	velocity 		all create 300 ${seed} rot yes dist gaussian
	velocity 		all create 300 77777 rot yes dist gaussian

	fix 			1 all nve
	fix 			2 all temp/rescale 1 ${T_run} ${T_run} 0.01 1.0
	fix 			2 all temp/rescale 1 300 ${T_run} 0.01 1.0
	fix 			2 all temp/rescale 1 300 300 0.01 1.0
	timestep		${dt}
	timestep		0.0010000000000000000208
	thermo_style  		custom step temp press etotal vol
	thermo			1000
	run             	100000
Memory usage per processor = 4.35585 Mbytes
Step Temp Press TotEng Volume 
       0          300    177883.56   -1574.5439     2924.207 
    1000          300    775.91329   -1596.1288     2924.207 
    2000          300    27074.042   -1598.2097     2924.207 
    3000          300    14630.979   -1597.1699     2924.207 
    4000          300    18543.031   -1597.1336     2924.207 
    5000          300    6409.9234   -1598.0043     2924.207 
    6000          300   -8153.7162   -1597.0921     2924.207 
    7000          300   -4082.6418   -1597.6949     2924.207 
    8000          300    19732.245   -1597.5615     2924.207 
    9000          300    30039.041   -1597.4584     2924.207 
   10000          300    16120.633   -1596.9005     2924.207 
   11000          300   -1494.0512   -1597.4608     2924.207 
   12000          300   -2830.7431   -1597.4862     2924.207 
   13000          300    245.04029   -1598.4437     2924.207 
   14000          300    16869.117   -1597.4187     2924.207 
   15000          300    17018.549   -1597.9102     2924.207 
   16000          300   -2122.2468   -1597.8201     2924.207 
   17000          300   -2450.7901   -1597.4159     2924.207 
   18000          300   -2166.1694   -1597.2277     2924.207 
   19000          300    8854.0717   -1597.2672     2924.207 
   20000          300    23648.901   -1597.3012     2924.207 
   21000          300    1537.5331   -1597.2936     2924.207 
   22000          300   -3849.2436   -1596.9742     2924.207 
   23000          300    9064.8165   -1597.8406     2924.207 
   24000          300    9979.5109    -1597.723     2924.207 
   25000          300    11857.727   -1598.2197     2924.207 
   26000          300   -2854.4201    -1597.649     2924.207 
   27000          300    2634.1467   -1598.1665     2924.207 
   28000          300    12861.685   -1596.9796     2924.207 
   29000          300   -1248.6269   -1597.7127     2924.207 
   30000          300    5481.4093   -1597.7007     2924.207 
   31000          300    12083.942    -1598.128     2924.207 
   32000          300    6009.8054    -1597.358     2924.207 
   33000          300   -3206.6646   -1597.3091     2924.207 
   34000          300    2626.1774        -1598     2924.207 
   35000          300    13454.732   -1597.9128     2924.207 
   36000          300    14358.406    -1597.874     2924.207 
   37000          300   -4217.5669   -1597.6707     2924.207 
   38000          300   -10336.038   -1597.3454     2924.207 
   39000          300    49.578228   -1597.4982     2924.207 
   40000          300    18238.905   -1597.3294     2924.207 
   41000          300    19559.866   -1597.2233     2924.207 
   42000          300    3488.6442   -1597.0884     2924.207 
   43000          300    3681.4211   -1596.6884     2924.207 
   44000          300    6892.7341   -1597.8372     2924.207 
   45000          300    14218.095   -1597.7531     2924.207 
   46000          300    9911.2571   -1597.9224     2924.207 
   47000          300   -1533.3098    -1598.585     2924.207 
   48000          300    11036.367    -1598.078     2924.207 
   49000          300    6192.7657   -1597.5612     2924.207 
   50000          300    2055.0455   -1597.1338     2924.207 
   51000          300    13146.688    -1597.011     2924.207 
   52000          300    16032.214   -1598.2095     2924.207 
   53000          300    5022.6371   -1598.4233     2924.207 
   54000          300    12074.883   -1598.3275     2924.207 
   55000          300    13689.008   -1597.6559     2924.207 
   56000          300    6207.9834   -1597.4071     2924.207 
   57000          300      17686.8    -1597.437     2924.207 
   58000          300    2097.9116   -1597.7216     2924.207 
   59000          300    12509.173   -1598.2532     2924.207 
   60000          300    12718.595   -1599.1595     2924.207 
   61000          300    5137.4629    -1597.816     2924.207 
   62000          300    11252.678   -1597.4688     2924.207 
   63000          300    11898.943    -1597.697     2924.207 
   64000          300    9460.2192     -1598.04     2924.207 
   65000          300     12289.51   -1598.1782     2924.207 
   66000          300     7998.861   -1598.5084     2924.207 
   67000          300      13799.8   -1598.9074     2924.207 
   68000          300    17041.086   -1597.3812     2924.207 
   69000          300    6776.5388   -1598.4608     2924.207 
   70000          300    10740.784   -1598.3842     2924.207 
   71000          300    5714.0943   -1598.7429     2924.207 
   72000          300    10303.812   -1597.9838     2924.207 
   73000          300    12898.054   -1599.7337     2924.207 
   74000          300    14650.946   -1598.7096     2924.207 
   75000          300    6922.9427   -1598.5493     2924.207 
   76000          300    15875.753   -1598.4761     2924.207 
   77000          300    8720.5705   -1598.3563     2924.207 
   78000          300    21532.354   -1597.8704     2924.207 
   79000          300    13732.802   -1599.0207     2924.207 
   80000          300    10415.306   -1597.2858     2924.207 
   81000          300     14412.87   -1598.8698     2924.207 
   82000          300    9200.6343   -1598.4146     2924.207 
   83000          300    19948.056   -1598.3345     2924.207 
   84000          300    9186.0009   -1598.9278     2924.207 
   85000          300    25988.857   -1598.3891     2924.207 
   86000          300    11661.965   -1598.2674     2924.207 
   87000          300    17394.421   -1598.7787     2924.207 
   88000          300    14816.575   -1598.9005     2924.207 
   89000          300    16874.272   -1599.6059     2924.207 
   90000          300    11787.715   -1598.0535     2924.207 
   91000          300    17628.163   -1598.7921     2924.207 
   92000          300    15244.096   -1599.1517     2924.207 
   93000          300    9350.4577   -1600.3065     2924.207 
   94000          300    19428.957   -1598.6867     2924.207 
   95000          300    14629.021   -1599.3735     2924.207 
   96000          300    16365.265   -1598.1768     2924.207 
   97000          300    12744.152   -1600.4386     2924.207 
   98000          300    16919.647   -1600.3145     2924.207 
   99000          300    15017.616   -1599.9105     2924.207 
  100000          300    11306.095    -1600.372     2924.207 
Loop time of 645.709 on 2 procs for 100000 steps with 240 atoms

Pair  time (%) = 618.417 (95.7732)
Bond  time (%) = 0.0237211 (0.00367365)
Neigh time (%) = 1.75827 (0.2723)
Comm  time (%) = 23.9015 (3.70159)
Outpt time (%) = 0.002828 (0.000437968)
Other time (%) = 1.60647 (0.248792)

Nlocal:    120 ave 127 max 113 min
Histogram: 1 0 0 0 0 0 0 0 0 1
Nghost:    5089 ave 5116 max 5062 min
Histogram: 1 0 0 0 0 0 0 0 0 1
Neighs:    45555 ave 48086 max 43024 min
Histogram: 1 0 0 0 0 0 0 0 0 1
FullNghs:  91110 ave 96152 max 86068 min
Histogram: 1 0 0 0 0 0 0 0 0 1

Total # of neighbors = 182220
Ave neighs/atom = 759.25
Ave special neighs/atom = 0
Neighbor list builds = 412
Dangerous builds = 0
#	run             	1000
	unfix 			1
	unfix 			2
#--------------------------------------------------------------------------
#nve
#--------------------------------------------------------------------------
	fix 			1 all nve
	timestep		${dt}
	timestep		0.0010000000000000000208
	thermo_style  		custom step temp press etotal vol
	thermo			1000
	run             	100000
Memory usage per processor = 4.81552 Mbytes
Step Temp Press TotEng Volume 
  100000          300    11306.095    -1600.372     2924.207 
  101000    295.77258    13270.026   -1600.3716     2924.207 
  102000    288.90088    14636.907    -1600.373     2924.207 
  103000    263.45916    11322.609   -1600.3701     2924.207 
  104000    250.05439    14452.064   -1600.3635     2924.207 
  105000    285.79175    13456.427   -1600.3675     2924.207 
  106000    289.55707    20825.488   -1600.3793     2924.207 
  107000    313.98572    7348.8004   -1600.3734     2924.207 
  108000    265.59845    17861.673   -1600.3705     2924.207 
  109000    262.64779    14641.111    -1600.366     2924.207 
  110000    285.60694    8550.7278   -1600.3662     2924.207 
  111000    270.37612    18018.113   -1600.3722     2924.207 
  112000    288.90798    11339.277   -1600.3692     2924.207 
  113000    284.43195    21121.302   -1600.3688     2924.207 
  114000    264.75387    9832.4619   -1600.3662     2924.207 
  115000    287.15488    7655.4188   -1600.3723     2924.207 
  116000    270.24646    26671.578   -1600.3735     2924.207 
  117000     286.3266    3414.9798   -1600.3699     2924.207 
  118000     288.7466    18975.578   -1600.3692     2924.207 
  119000    274.58843    7796.5476   -1600.3664     2924.207 
  120000    262.28165    15951.575   -1600.3701     2924.207 
  121000    283.80445    16458.944   -1600.3716     2924.207 
  122000    300.46307      3136.36    -1600.377     2924.207 
  123000     270.0324    19593.925   -1600.3731     2924.207 
  124000    271.14064    12807.374   -1600.3695     2924.207 
  125000    277.95432    14997.592   -1600.3717     2924.207 
  126000    282.44985    17025.844    -1600.379     2924.207 
  127000    281.96259    16106.396   -1600.3691     2924.207 
  128000    263.55352    17426.905   -1600.3721     2924.207 
  129000    286.40298    11311.567   -1600.3705     2924.207 
  130000    242.80375    20991.141   -1600.3678     2924.207 
  131000    274.34316    11256.488   -1600.3675     2924.207 
  132000    287.24397    17844.204   -1600.3732     2924.207 
  133000    298.79198    13866.557   -1600.3715     2924.207 
  134000    263.73766    17803.397   -1600.3756     2924.207 
  135000    309.45355    5223.7435   -1600.3793     2924.207 
  136000     269.5996    14262.901   -1600.3716     2924.207 
  137000    268.38098    16331.984   -1600.3674     2924.207 
  138000    276.65452    16200.154   -1600.3796     2924.207 
  139000    283.03016    9787.5062   -1600.3707     2924.207 
  140000    273.58404    16111.458   -1600.3804     2924.207 
  141000    278.60983    14949.571   -1600.3695     2924.207 
  142000    281.94409    9270.9563   -1600.3724     2924.207 
  143000    308.78635    16930.257   -1600.3752     2924.207 
  144000     280.2595    15249.005   -1600.3799     2924.207 
  145000     286.7381    13367.379   -1600.3714     2924.207 
  146000    267.32586    15836.421   -1600.3769     2924.207 
  147000     282.4832    6618.1666   -1600.3785     2924.207 
  148000    289.59018    13563.344   -1600.3726     2924.207 
  149000    273.85928    14362.691   -1600.3728     2924.207 
  150000    271.67183     23016.57   -1600.3754     2924.207 
  151000    287.38074    11176.576   -1600.3662     2924.207 
  152000    257.56662    15243.198   -1600.3716     2924.207 
  153000    287.71694    7785.9184   -1600.3693     2924.207 
  154000    271.52708    13823.033   -1600.3726     2924.207 
  155000    274.68044    8870.8651    -1600.369     2924.207 
  156000    270.49509    15570.612    -1600.376     2924.207 
  157000    289.35542    12679.598   -1600.3742     2924.207 
  158000    272.08033    10830.852   -1600.3701     2924.207 
  159000    278.98021    11471.338   -1600.3736     2924.207 
  160000    299.94043    12795.965   -1600.3812     2924.207 
  161000    276.21026    14112.077   -1600.3735     2924.207 
  162000     271.2386    17225.597   -1600.3729     2924.207 
  163000    311.01262    8151.8029   -1600.3766     2924.207 
  164000    289.57641    13838.278   -1600.3751     2924.207 
  165000    283.62203    14222.352    -1600.378     2924.207 
  166000     294.3246    12865.354   -1600.3763     2924.207 
  167000    268.27406    6149.5071   -1600.3662     2924.207 
  168000    295.62435    9684.3986   -1600.3753     2924.207 
  169000    293.67276     7760.855   -1600.3727     2924.207 
  170000    281.22627    17560.766   -1600.3727     2924.207 
  171000     282.1265    17017.143   -1600.3767     2924.207 
  172000    286.68996    8683.1743   -1600.3675     2924.207 
  173000    285.04298        15537   -1600.3779     2924.207 
  174000    300.47803    13895.329   -1600.3746     2924.207 
  175000     254.5499     10822.04   -1600.3644     2924.207 
  176000    296.90849    3748.3473   -1600.3726     2924.207 
  177000    278.17002    16355.647     -1600.37     2924.207 
  178000    271.79371    9331.2302   -1600.3702     2924.207 
  179000     290.1396     15517.34   -1600.3723     2924.207 
  180000    264.90209    10905.615   -1600.3735     2924.207 
  181000    279.23725    6088.9296   -1600.3685     2924.207 
  182000    279.37565    10698.946   -1600.3698     2924.207 
  183000    283.38381    16230.532   -1600.3751     2924.207 
  184000    313.18371    4860.9916   -1600.3807     2924.207 
  185000      274.991    18345.303   -1600.3677     2924.207 
  186000    280.34133    7078.8569   -1600.3748     2924.207 
  187000    285.33753    12618.093   -1600.3744     2924.207 
  188000    288.99448    11308.172   -1600.3702     2924.207 
  189000    281.06508    11768.375   -1600.3697     2924.207 
  190000    293.85983    11119.965   -1600.3759     2924.207 
  191000    270.19582    15561.151   -1600.3766     2924.207 
  192000    295.25741    15127.246    -1600.377     2924.207 
  193000    250.09222    17246.924   -1600.3623     2924.207 
  194000    301.88184    2010.1399   -1600.3698     2924.207 
  195000    265.39261    14009.828   -1600.3695     2924.207 
  196000    291.02257    9029.8582   -1600.3659     2924.207 
  197000    276.82028    7902.0713   -1600.3721     2924.207 
  198000    266.39713    14814.336   -1600.3649     2924.207 
  199000    291.29709    10518.804   -1600.3723     2924.207 
  200000    283.19056    18312.233   -1600.3709     2924.207 
Loop time of 660.373 on 2 procs for 100000 steps with 240 atoms

Pair  time (%) = 630.826 (95.5257)
Bond  time (%) = 0.0249972 (0.00378532)
Neigh time (%) = 3.70107 (0.560452)
Comm  time (%) = 24.4704 (3.70555)
Outpt time (%) = 0.00318944 (0.000482977)
Other time (%) = 1.34731 (0.204023)

Nlocal:    120 ave 121 max 119 min
Histogram: 1 0 0 0 0 0 0 0 0 1
Nghost:    5004 ave 5012 max 4996 min
Histogram: 1 0 0 0 0 0 0 0 0 1
Neighs:    45513 ave 45769 max 45257 min
Histogram: 1 0 0 0 0 0 0 0 0 1
FullNghs:  91026 ave 91551 max 90501 min
Histogram: 1 0 0 0 0 0 0 0 0 1

Total # of neighbors = 182052
Ave neighs/atom = 758.55
Ave special neighs/atom = 0
Neighbor list builds = 850
Dangerous builds = 0
#	run             	10000
	unfix 			1
#--------------------------------------------------------------------------
#kappa
#--------------------------------------------------------------------------
log 	log_kappa_${iseed}.lammps
log 	log_kappa_7.lammps
