	reset_timestep  	0
	fix 			1 all nve
	compute   		myKE all ke/atom
	compute   		myPE all pe/atom
	compute   		myStress all stress/atom virial
	compute   		flux all heat/flux myKE myPE myStress
	variable  		Jx equal c_flux[1]/vol
	variable  		Jy equal c_flux[2]/vol
	variable  		Jz equal c_flux[3]/vol
	fix       		JJ all ave/correlate $s $p $d c_flux[1] c_flux[2] c_flux[3] type auto file J0Jt_${iseed}.dat ave running
	fix       		JJ all ave/correlate 10 $p $d c_flux[1] c_flux[2] c_flux[3] type auto file J0Jt_${iseed}.dat ave running
	fix       		JJ all ave/correlate 10 100000 $d c_flux[1] c_flux[2] c_flux[3] type auto file J0Jt_${iseed}.dat ave running
	fix       		JJ all ave/correlate 10 100000 1000000 c_flux[1] c_flux[2] c_flux[3] type auto file J0Jt_${iseed}.dat ave running
	fix       		JJ all ave/correlate 10 100000 1000000 c_flux[1] c_flux[2] c_flux[3] type auto file J0Jt_9.dat ave running
	compute 		myDis all msd
	thermo_style 		custom step temp press vol c_myDis[4] v_Jx v_Jy v_Jz
	thermo			1000
	timestep		${dt}
	timestep		0.0010000000000000000208
	run			1000000
Memory usage per processor = 7.28915 Mbytes
Step Temp Press Volume myDis[4] Jx Jy Jz 
       0    311.40003    9281.5461     2924.207 2.2487072e-30  0.092851334  0.018958357 -0.028805119 
    1000    306.32936    13604.815     2924.207    13.646223 -0.019109864 -0.027813408  0.016056333 
    2000    322.62105    9023.9106     2924.207    31.682855 -0.033104775   0.00106785 0.0040668151 
    3000    307.08156    11731.659     2924.207     32.56852 -0.00061494325  0.025152188 0.0051256709 
    4000    299.35507    14765.651     2924.207    20.987041 -0.0096540122 0.0030685763  0.011795343 
    5000    316.02922    11201.349     2924.207    15.292107 -0.0039106062 -0.032154241  0.013455954 
    6000    321.93374    11140.812     2924.207    24.374976  0.016026735 -0.073135301  -0.01412991 
    7000    316.55015    10161.489     2924.207    28.173947  0.013620098 -0.049308767 -0.00055228596 
    8000    317.00543    17669.667     2924.207    24.388602 -0.005914941 -0.014382151 -0.025811938 
    9000    321.45549    3270.4484     2924.207    26.708625   0.01304043  0.057431276 -0.041580146 
   10000    288.56905    15398.255     2924.207    31.509134  0.013215052 -0.0077308906 -0.019413078 
   11000     316.0297    12126.091     2924.207    34.155408 -0.027716536 -0.024841259 -0.0080471175 
   12000    314.15368    12823.269     2924.207    32.768134 -0.014570033 0.0059637753 -0.023398651 
   13000    331.27592    11233.513     2924.207    30.238794 -0.0039144177   0.03685522 -0.0029933636 
   14000    304.66085    16960.643     2924.207    32.129636 -0.049998194 -0.030970993  0.033887021 
   15000    311.40815    17146.752     2924.207    33.777781 -0.018671511 -0.015375679  0.027532586 
   16000    298.93675    13051.999     2924.207    26.831958 -0.025425113 -0.0094090253 0.0068900837 
   17000    303.21337    8425.7353     2924.207    19.509787  -0.01232399  0.019914232   0.01357511 
   18000    311.69457    11908.075     2924.207    23.643224  0.016820985 -0.011657742  0.009083445 
   19000    308.43668    13522.656     2924.207    28.276445 -0.00022393323 -0.013505922   0.02173437 
   20000    305.46843    6888.6103     2924.207     27.76774  0.017384692 -0.025018443 0.0071924071 
   21000    309.97092    11508.511     2924.207    27.619941 -0.017416123  0.012817079 -0.0093413478 
   22000    312.76549    11404.787     2924.207    24.517657 -0.013374003 -0.013135536  0.031637654 
   23000    295.89123    15180.266     2924.207     17.20271 -0.010261021 -0.011514205 -0.063855759 
   24000    298.22847    13943.382     2924.207    15.578606 0.0011496513  0.014834345  0.025241171 
   25000    287.03554     18859.19     2924.207    25.333344 0.0081627313  0.025866671  0.035586741 
   26000    300.67796    20322.765     2924.207     32.59085  0.013638211 -0.020772737 -0.021964756 
   27000    283.38568    16438.173     2924.207     33.43315 0.0085934181 -0.029576348   0.01494317 
   28000    308.45644     5188.335     2924.207    29.726369 -0.025472016 0.00039523291 -0.024072289 
   29000    282.14947    20598.856     2924.207    25.727323 -0.032847119  0.006444127  0.010754528 
   30000    280.81095    15321.107     2924.207    25.718288 -0.013130481 -0.034538757  0.018522276 
   31000    299.19864    12967.379     2924.207    26.887078 -0.0081137559 -0.0035869714  0.031154241 
   32000    296.67851    10975.925     2924.207    26.203576 -0.0083199052  0.043781883  0.023409965 
   33000    285.25766    21077.592     2924.207     26.85258 0.00074982922 0.0071262726 -0.018555371 
   34000    283.28275    13594.473     2924.207    27.038784 -0.012217897  0.034424189  0.014968878 
   35000    305.46394    9031.8115     2924.207     26.64154  -0.03133655 0.0072118189 0.0019801185 
   36000    289.76017    18526.547     2924.207    31.045277   0.01164937  0.021849441 -0.0055008939 
   37000    309.82906    4071.2861     2924.207    32.380187 -0.0026546673  0.047859107 -0.054191991 
   38000    329.55521     18615.89     2924.207    25.082112  0.025513359 -0.019573483  0.003460075 
   39000     303.3808    7416.6401     2924.207    21.333198 0.0015576051  0.009580528  0.022235596 
   40000    311.55237    16319.838     2924.207    25.151234 -0.039346598 0.0048185938  0.032966293 
   41000    326.46923    12741.166     2924.207    25.479891 -0.017215522  0.032648751 -0.0029639963 
   42000    316.91488    7473.2962     2924.207    27.476299  0.012548629 -0.0018470988 -0.028972196 
   43000    325.08823    6632.3636     2924.207    27.372705 -0.011471782 0.0058259048  0.010831809 
   44000    294.43842     17038.22     2924.207    29.459175 -0.021680947  0.056766216 -0.00098795507 
   45000    306.66727    10123.148     2924.207    30.831476  0.046747983  0.030844711 -0.013701683 
   46000    308.08304    12972.633     2924.207    27.001815 -0.020179588 -0.014836019   0.01715657 
   47000    281.00947    12356.802     2924.207    25.597665  0.005120971  0.014507519 -0.019655696 
   48000    321.89956    7001.7996     2924.207    30.357164 -0.017400507  0.014401907 -0.023171909 
   49000    313.08825    10994.672     2924.207    32.913191  -0.01133128  0.014630211 0.0034949771 
   50000    293.59732    14821.903     2924.207      27.1283  -0.04157556  0.036337464 -0.0034842413 
   51000    308.23031    14032.861     2924.207     22.86409 0.0022483717   0.03339677  0.039383007 
   52000    286.82378    16289.112     2924.207    26.835342 -0.0090258722 -0.0026689674   0.01264047 
   53000    320.60577    10394.365     2924.207    32.077714 0.00049192021  0.018576302 -0.026877502 
   54000     298.0114    9042.5121     2924.207    29.987088 -0.0074941912 -0.010033118 -0.018626546 
   55000    303.44249    10991.422     2924.207    23.635471  0.018592331  0.024756808  0.037985873 
   56000    296.39109    17580.244     2924.207    20.368492 -0.034835225 0.0020258883   0.03877941 
   57000    328.31054    10548.312     2924.207    22.720801 0.0011328535  0.037551238 0.0029215115 
   58000    300.48027    14109.119     2924.207    26.131815 0.0073208394  0.015962107    0.0157804 
   59000    296.56995    11577.985     2924.207    27.052059  0.014826066 0.0067133294 -0.029604798 
   60000    289.66089    16552.387     2924.207    28.082562 -0.021820177  -0.01585702  0.008981613 
   61000    300.75546     15988.19     2924.207    30.906636 0.0086813828  0.012753059  0.047206418 
   62000    315.22108    4223.2544     2924.207    32.410986 -0.010954743 -0.0013983295 -0.025877918 
   63000    329.18878    10685.375     2924.207    28.900528 -0.043204125 -0.030459907 -0.0041831133 
   64000    307.33598    12158.273     2924.207     28.17551 -0.032828988 -0.015171906 -0.027948429 
   65000    308.59304    8982.6489     2924.207    31.428814 -0.017297577 -0.017160212  0.033606035 
   66000    309.27754    13289.751     2924.207    35.745923 -0.0058078017   0.03752248 0.0065009204 
   67000    298.85259     7182.306     2924.207    33.644852 -0.009613562   0.01303885  0.013598806 
   68000    304.60621    13280.707     2924.207    26.388036 -0.0096979909 0.0084495761  0.029067522 
   69000    298.37523     11331.95     2924.207    24.613473 0.0069124192 -0.0082585355 -0.0044867479 
   70000     312.4937    4919.2133     2924.207    27.368241 0.0065879511 0.0049067414  0.023843984 
   71000    274.57912    18366.978     2924.207    28.177988 -0.00051760153 0.0095591459   0.01482485 
   72000     320.4437    9390.7778     2924.207    28.420581 -0.0032597009  -0.02691864 -0.044054594 
   73000     316.9822    7897.5894     2924.207    29.615557 -0.050295684 -0.013371688 -0.013951959 
   74000    310.91689    17907.701     2924.207    23.191667 -0.011490725  0.039277119 -0.0065094377 
   75000    315.44847    7676.9904     2924.207    16.017548 -0.0042920618 0.0039852989  0.023097923 
   76000     300.6695    16502.095     2924.207    18.313579 -0.051282674 -0.0071585415  0.021829785 
   77000    292.22658    11672.117     2924.207    29.041178  0.012366895   0.01086097 -0.00046520666 
   78000    299.30207    19938.909     2924.207    34.329637 -0.021970402  -0.01547429 -0.050437025 
   79000    324.33665    3412.5234     2924.207     32.86794  0.010407799  0.030757986 0.0014693457 
   80000    309.31517    16052.124     2924.207     31.01128 -0.013078966  0.022163212 -0.0020347092 
   81000    296.90683    3667.2118     2924.207    31.209772 -6.822797e-05 -0.0077496195 -0.013499888 
   82000    313.50884    15823.012     2924.207    32.300892  0.023146523 -0.0097372682 0.0086782374 
   83000    296.65257    14393.381     2924.207    33.712993 -0.0029026873 -0.012686308 0.0096048557 
   84000    301.31767    8472.3198     2924.207    31.930306 -0.0079924465 -0.019491491 -0.020035198 
   85000    321.40643    18201.361     2924.207    28.383092  0.036728496 -0.0068224057 -0.0056789735 
   86000    299.22887    14504.934     2924.207    28.505792 -0.041127703 -0.029268792 -0.0033862287 
   87000    319.96334    8943.0623     2924.207    30.572671 -0.0045638051 0.0015388232  -0.02149733 
   88000    292.73815    14177.038     2924.207     29.65131   0.01220301  0.014612801 -0.014192234 
   89000    292.28807    12256.806     2924.207    28.623775 -0.0052036822  0.018011568 -0.012148876 
   90000    298.30562    14812.777     2924.207    27.290383 0.0031887654 -0.005247186 -0.0046442158 
   91000    316.76137    6898.1395     2924.207    27.952566  0.010551562 0.0010025485 -0.041170244 
   92000    303.93004    13100.775     2924.207    32.173895  -0.01765734 -0.0038159872  0.014355765 
   93000    287.91746    13699.575     2924.207    34.867822 -0.0093188988  0.047573504 -0.012405697 
   94000    296.16363    10884.451     2924.207    32.427863 -0.033663611 0.0023830503 -0.013003877 
   95000    297.26848    14352.657     2924.207    29.234369  0.017658407 -0.00084804592  0.014706935 
   96000    299.32072    18554.487     2924.207    29.179698 -0.026337861  0.013444191  0.030813221 
   97000     269.5183    12044.727     2924.207    29.065828  0.019931358 -0.014496263 -0.007983702 
   98000    295.19166     15948.23     2924.207    27.752385  0.023405932 -0.046829796   0.02703675 
   99000    291.56445    14227.196     2924.207    29.762623  0.024092835 -0.027440879 -0.030571021 
  100000    304.98212    2909.9533     2924.207    32.216944 0.0071045171 -0.011852469  0.021373234 
  101000    301.55632    16460.953     2924.207    33.174193 -0.011480748 -0.017059869 0.0037456909 
  102000     273.5608    3760.3305     2924.207    34.073807  0.021817247 -0.014742069 -0.037740003 
  103000    308.39967    18348.578     2924.207     35.17299  0.033569404 -0.040743347 0.0093732459 
  104000    290.99036    14529.453     2924.207    34.880887  0.020791715 0.0097190632 -0.010251273 
  105000    320.17046    11105.913     2924.207    29.840229  0.044150895 -0.017841429  0.036838115 
  106000    317.11368    6367.2162     2924.207     25.02216  0.055150997 -0.015790552  -0.01190844 
  107000    259.87065    14089.195     2924.207    24.992854 -0.016998399 -0.0019138713 -0.0011056076 
  108000    300.42966    18946.317     2924.207      27.0297 0.0028367672  0.031754558 0.0056999764 
  109000    293.35116    10866.442     2924.207     26.63135  0.018762622   0.03300054  0.016130181 
  110000    292.38119    16049.605     2924.207    23.821411 -0.013551381 -0.038520056  -0.04687228 
  111000    284.74705    13832.563     2924.207    20.836093 0.0096504339  -0.02581261 -0.0083982177 
  112000    297.67274    5465.8956     2924.207    16.207751  0.070461891 -0.027110901 0.0014021447 
  113000     313.5396    18892.123     2924.207    15.965371  0.043619111  -0.02401825  0.018741988 
  114000    291.88674    7071.3555     2924.207    24.322064   0.00778842 0.00064888376 -0.038211126 
  115000    316.25086    19270.258     2924.207    31.949932  0.012627839 0.0036274333 -0.015357934 
  116000    290.22196    10114.381     2924.207     31.28014 0.0048655162  0.026240562   0.01656105 
  117000    307.35677    14763.627     2924.207    26.213315 -0.025456893  0.013750312  0.026372783 
  118000    288.72646    10306.763     2924.207    23.780615 -0.036665324  0.034900531 0.0096555547 
  119000    307.49812    9818.0033     2924.207    27.777641 -0.013260891 -0.0074086544   0.03639109 
  120000    304.24033    19574.487     2924.207    32.994404 -0.037531196 0.0063063857  0.014551979 
  121000    306.12053    17832.786     2924.207    34.389522 -0.026380471  0.036465213 -0.018120422 
  122000    302.80286    6093.4714     2924.207    32.472735 -0.020938183 -0.0090324581  0.034855206 
  123000    289.67714    18819.459     2924.207    30.485971 -0.066081943 -0.0083617212 -0.029227005 
  124000    295.26858    12475.506     2924.207    29.584026  0.038920341  0.026051706 -0.035105159 
  125000    278.79806    19420.558     2924.207    28.415638 -0.015075433 0.0057128542 0.0055600666 
  126000    317.20288    13594.129     2924.207    27.512994  0.010658921 -0.031292656  0.042487538 
  127000      288.696     11957.57     2924.207     26.14851 -0.0077804663 -0.018295238 -0.0053495202 
  128000    280.48309    14982.091     2924.207    24.205505 0.0087155625  0.010671267 0.0037557771 
  129000    317.23773    14025.296     2924.207    23.277481 -0.028762895 -0.041127968  0.020387363 
  130000     315.7481    6583.5459     2924.207      23.0848 -0.032740547 -0.027422054 -0.024503328 
  131000    272.58772     18839.99     2924.207    22.630533 -0.0097110712 -0.0027487144 0.0074052936 
  132000    315.61187    5886.5081     2924.207    21.483739  0.062809318 -0.021507648 -0.0054573754 
  133000    311.38407    12060.566     2924.207    23.586524 -0.0030802226  0.015309414 0.0080582125 
  134000    273.17524    15960.611     2924.207    27.582669  0.020843519 -0.0094892132 -0.036230929 
  135000    293.60565    10304.793     2924.207    32.012195 -0.030225084 -0.012102116   0.02581482 
  136000    290.70432     6765.542     2924.207    31.179489 -0.00044072153  0.018988511 -0.0023614922 
  137000    305.66028    19291.787     2924.207    26.256749  0.038174054 -0.029456033   0.01400318 
  138000    276.23197    8692.0852     2924.207    22.123269 -0.0013696232 -0.048883055 -0.040117346 
  139000    294.18649    12479.475     2924.207    21.795376 -0.024069583 -0.0024594708  0.025834878 
  140000    313.31572    11232.726     2924.207    21.006672  0.024180548 -0.014970097 0.0069383762 
  141000    297.76626    5969.2251     2924.207    24.358927 -0.033556935 -0.023956368 0.0036036141 
  142000    291.77326    15267.631     2924.207    27.680425  0.018119662 -0.0073554264  0.045316553 
  143000    278.38689    8293.4145     2924.207    27.846648  0.031648559  0.016243548  0.017195968 
  144000     297.1707    15531.074     2924.207    24.803653 -0.020620846  0.046383427 -0.0084839454 
  145000    271.90631      17816.9     2924.207    22.370056 -0.0016984818 -0.0086165206  0.030176997 
  146000    307.94055    5860.2466     2924.207     25.26365 0.00043390563  0.042821107 -0.035627014 
  147000    278.02921    22844.713     2924.207    28.515533  0.029442994   0.03741019  0.022872413 
  148000    305.12749    7990.3787     2924.207    31.416236  0.011749066 -0.007347398  0.014542762 
  149000    299.52715    11361.856     2924.207    28.738805 -0.024250899 0.00085065541 0.0039039428 
  150000    291.57528     9021.323     2924.207    27.777989 -0.026505088 -0.0080307926 -0.012823891 
  151000    298.79319    12400.302     2924.207    27.723747 -0.025964925 0.0049290747  -0.02022785 
  152000     287.0936    15634.598     2924.207    28.663378 -0.0079749573 -0.0097396127 -0.011158895 
  153000    295.70865    8827.0228     2924.207    26.839534  0.013810733 -0.0052896096 -0.0015540946 
  154000    295.53323     11084.14     2924.207    23.731358 -0.010583429 -0.0066711156 -6.0357461e-05 
  155000    299.13132    13182.749     2924.207    27.789686 -0.0094267993 -0.014418418 -0.0032485362 
  156000    304.51447    9360.8388     2924.207    31.373813  0.017732325 -0.015658861 -0.0014779655 
  157000    299.74334    9887.7769     2924.207    30.949731 -0.0071934989  0.031149999 -0.035863316 
  158000    271.98048    18086.497     2924.207    25.856078  0.026454848  0.018323308 -0.032139346 
  159000    313.88117    7199.8449     2924.207    19.921164 -0.035540597 -0.0044338999 -0.0043058638 
  160000    275.91363    16169.579     2924.207    15.789775 -0.015035937  0.034106486 -0.027464488 
  161000    283.14972    10301.479     2924.207    16.091345  0.039788687 -0.0040343656 -0.00010849425 
  162000    294.09177    15559.612     2924.207    18.611197 -0.019844906  0.013784624 0.0095563474 
  163000    292.45013    15754.921     2924.207    22.699281  -0.02512012 0.0098128209 -0.0027844941 
  164000    272.79618    8272.9063     2924.207     25.73463  0.014221171  0.012239678  0.016405744 
  165000    286.93448    15218.036     2924.207    24.861708  0.013525694 -0.014418384 -0.0025711439 
  166000    286.98676    9947.4435     2924.207    23.928316 0.0093029599  0.030862268  -0.03516121 
  167000    301.74674    10266.389     2924.207     21.89467  0.021158199 -0.045814616  0.010450984 
  168000    270.19328    18998.914     2924.207    18.506938 -0.047980061 -0.020558023  0.040759791 
  169000     295.3613    10447.014     2924.207    18.406074 -0.015431973 -0.038263616  0.046613824 
  170000    302.58218    11285.542     2924.207    23.842096 -0.029182901 -0.023063441  0.027818328 
  171000    291.30813    14242.469     2924.207    27.888631  0.015920651 0.0092229098 -0.0056382115 
  172000    313.72581    8651.2387     2924.207    31.044627  -0.01764469  0.032514844  0.013526039 
  173000    275.17832    11581.315     2924.207    29.585691 -0.041350471 -0.030369933 -0.046467856 
  174000    300.82308    17853.097     2924.207    25.039854 -0.043004096 -0.0030639131 -0.0053784996 
  175000    297.48564    13504.539     2924.207    21.905905 -0.044098556  0.020040622  0.016043965 
  176000     298.5893    4200.4952     2924.207    20.713775 -0.0045446354 -0.056251029  0.025641519 
  177000    284.87596    10124.125     2924.207    22.217909 -0.012271925 0.0061031339 -0.015001018 
  178000    296.27658    5412.7997     2924.207    25.729272 -0.032869405 -0.0087011064 -0.0010110083 
  179000    286.83591    18724.682     2924.207    27.787698  0.022496614 0.0042028464 -0.026491867 
  180000    311.33756    9854.7555     2924.207    25.302252  0.025339277 -0.00077188302  0.024326172 
  181000    298.03867    12010.929     2924.207    21.805864 -0.003415772 -0.062540602 0.0061054912 
  182000    281.86345    13607.117     2924.207    22.035629 -0.016844805  0.020466146 0.0034107216 
  183000    297.13578    9359.6251     2924.207    24.535563 0.0078214202 -0.0071396307  -0.06507165 
  184000    275.94795    11895.819     2924.207     29.77708 0.0015463847 0.0084664942 -0.034059189 
  185000    308.41361     12199.36     2924.207    32.711799 -0.023811852  0.035366717  0.006739253 
  186000    279.18454    13929.153     2924.207    31.307051 -0.040858818  -0.02872299  0.024079349 
  187000    317.99017    10511.732     2924.207     30.03028 -0.047664178  0.040403626 -0.028061483 
  188000    306.69242     8228.342     2924.207    30.410076 -0.0054377295  0.014236746  0.054554017 
  189000    276.71584    14540.009     2924.207    32.131899  0.020739099 0.00097989099 -0.00048918552 
  190000    294.45932    14841.348     2924.207    32.748466  0.021371994  0.018763091 0.0092261587 
  191000    284.00369    11196.892     2924.207    33.199773 -0.036317563  0.012241531 -0.0089360357 
  192000    293.36253    12294.953     2924.207    32.459409 -0.015910349 -0.0097443898 -0.022255065 
  193000     276.7845    10081.804     2924.207    31.969402 0.0041570391   0.03224216 -0.044755195 
  194000    315.34192     10749.82     2924.207    29.854654 -0.051799715 -0.00052270112  0.001575909 
  195000    284.99926    3134.7436     2924.207    28.505659 -0.024326394 -0.029763794 -0.019785524 
  196000    285.40859    12733.258     2924.207    27.454266  -0.00928313  0.009801124 -0.0050742982 
  197000    280.32891    19615.357     2924.207    28.011412 -0.021457705 -0.014181249 -0.027831045 
  198000    279.52399    8887.0562     2924.207    28.885761 -0.019722352  0.025868435 -0.012020935 
  199000     306.4402    13851.444     2924.207    29.563653 -0.026600827   0.01150892 -0.040261211 
  200000    306.34579     9988.847     2924.207    25.881706 -0.019522355 -0.0069504381  0.069227488 
  201000    284.81787    5097.4746     2924.207    21.900624  0.010505123  0.004257726 -0.038737281 
  202000    299.54045    17844.422     2924.207     21.88178  0.032276005 -0.016629003 -0.017684464 
  203000     309.1643      7314.06     2924.207    27.345783 0.0099400777 0.0077323511 -0.0079663587 
  204000    282.04424    9336.5408     2924.207    31.787178  0.012555559  0.015197549 -0.030153836 
  205000    299.37714    6169.9237     2924.207    30.423991  0.011518483 -0.029516217 -0.0030263076 
  206000    306.78167    14935.561     2924.207    25.768597  0.010431656 -0.0005350943 -0.015133441 
  207000     303.4013    4845.5573     2924.207     25.54791 -0.017614769 -0.017389404  0.023375583 
  208000    294.86281    12912.477     2924.207    29.493375 0.0084353403   0.02617061  -0.05829649 
  209000    310.72481    6605.8573     2924.207    33.206342 -0.020255658 -0.012670179  0.050157345 
  210000    286.60962    8916.0201     2924.207    29.831831 -0.024806428  0.042326562 -0.019825517 
  211000     287.4235    6697.8588     2924.207    21.414726 0.0026206555 0.0044844255   -0.0129844 
  212000    307.47755    14508.682     2924.207    17.812789  0.036020769 -0.066195501 0.0023821662 
  213000    286.65963     9245.098     2924.207    19.277332  0.029276221 -0.016290029 -0.016448215 
  214000    321.78136    8901.7342     2924.207    19.667197 -0.0093794695 -0.0039498376 0.0054211466 
  215000    285.32458     12899.27     2924.207    21.721758 -0.0074373861 0.0026460484 -0.0095963287 
  216000    302.92294    11630.807     2924.207    24.153129  0.025751941   0.01515536 -0.0065203606 
  217000    302.47734    3262.5157     2924.207     25.93965 -0.017365244 -0.017410578  -0.01014946 
  218000    315.75844    19730.429     2924.207    25.442747 -0.00068832606 -0.031593489 -0.0094032845 
  219000    311.77555    -156.7023     2924.207    22.021189 -0.0017549727 -0.012937508 -0.019741068 
  220000    293.40024    15662.176     2924.207    18.655876  0.015671705  0.014598347  0.045054213 
  221000    301.24898    8697.2932     2924.207    21.447708  0.029899888  0.001895102 -0.024425454 
  222000    288.71301    11387.137     2924.207     28.70467 0.0039342019  0.009607758  0.032815503 
  223000    298.98091    19344.199     2924.207    30.678334 -0.013171001  0.013467566 -0.039943023 
  224000    297.85233    3033.5844     2924.207    26.462618  0.038212576  0.018283254  0.040253817 
  225000    286.96902    13517.084     2924.207    24.808937 -0.011724188 -0.0065029096 -0.045808317 
  226000     301.6628    12356.827     2924.207     26.39202 -0.035443305 -0.0028314313  0.011112031 
  227000    310.46784    8286.0888     2924.207    27.599635 -0.045915768  0.017068641  0.022542656 
  228000    309.14234    9949.1861     2924.207    28.291042 -0.033920306 -0.0032041456  0.021448321 
  229000    299.92247    8749.6501     2924.207    27.295567  0.024641765 -0.0022691488  0.022618607 
  230000    287.50523    9160.6045     2924.207    26.551633  0.006921543 -0.036149776 -0.0064211398 
  231000    296.55142    5282.6456     2924.207    26.576345  0.002429832 0.0080351377 -0.0027602374 
  232000    306.40789    5026.6099     2924.207     25.35004 -0.0041169082 0.0022456692  0.010578951 
  233000    286.39188    11204.311     2924.207    24.534916 -0.013392956 -0.025699046  0.055883048 
  234000    301.66207    3201.3566     2924.207    27.941044 -0.048132545 0.0080782827  0.017737041 
  235000    300.77054    16240.691     2924.207    29.237381  0.042394168  -0.01313363 -0.0099820621 
  236000    289.25981    10373.666     2924.207    24.697973 -0.010655857  0.034068682 -0.0018558625 
  237000    296.10426    11280.807     2924.207    23.544249 -0.030926728 -0.047434734 -0.015562765 
  238000     306.5255    7728.3069     2924.207    27.495603 -0.0027625044   0.01305387 0.00095772336 
  239000    298.25405    10557.775     2924.207    32.491882  0.026264145  0.021268348 0.0040361071 
  240000    299.24562     10103.88     2924.207    32.661823  0.026614805 0.0048573654  0.029145102 
  241000    302.25686    18326.758     2924.207    32.656451 -0.020265411 -0.0007805789 -0.0040905271 
  242000    302.26215    6310.9118     2924.207    33.575615  0.013278229 -0.018143275 -0.0022729517 
  243000    302.00054    13033.076     2924.207    32.798388 0.0072022443  0.010187752 -0.0068373434 
  244000    289.42253    8477.9863     2924.207     31.43971 -0.011197131 -0.0032792482  -0.02719683 
  245000    295.16856     11109.72     2924.207    29.575767  -0.05692932  0.022209519  0.021737257 
  246000    296.47305    9395.0823     2924.207    27.189687 -0.0005270195 0.0036611687  0.017624097 
  247000    299.26736    12718.203     2924.207    29.692641 -0.015626293  0.035183698 -0.031595801 
  248000    311.41112    7908.2846     2924.207    31.876355 -0.0051328719  0.030274509 0.0066647482 
  249000    282.32174    12246.903     2924.207    29.510001 -0.0095041766 -0.0075311603 -0.049854439 
  250000    307.19797    6748.0975     2924.207    23.008119 -0.032083587  0.015871108 0.0029699823 
  251000    295.68787    13961.393     2924.207    21.238639 0.00063056111  0.017143836  0.011033083 
  252000    292.00577    7337.5449     2924.207    26.991475   0.01949745 -0.010405925 0.00092568414 
  253000    309.99111    11747.028     2924.207    30.985031 0.0021831992  0.015603209 0.0047935133 
  254000    312.36296    9892.2826     2924.207     25.11459  0.014014521  0.031382254  0.021866401 
  255000    299.28679     6640.379     2924.207    17.511904  0.017525971 -0.017513376  0.026305221 
  256000    287.97673    12641.972     2924.207    16.843886  0.023965799  0.034763559 0.0044794169 
  257000    290.26127    8678.0256     2924.207    25.123601 -0.0095631308 -0.013759076 -0.012880475 
  258000    299.54334    8186.5447     2924.207    30.687326  0.017948069 -0.012335152 -0.042974645 
  259000    295.48317    10086.949     2924.207    26.433695  0.022775085 -0.0037829046  -0.01001214 
  260000    300.51675    12525.666     2924.207    21.542458 0.0018345045 0.0073486165 0.0063243729 
  261000    300.24485    6482.5283     2924.207     24.42864 -0.011534404 0.00013176211  0.010822378 
  262000    299.34227    16903.641     2924.207    26.302424 -0.037634744  0.024162412 0.0040448927 
  263000     291.2073   -3190.7464     2924.207    23.536809 -0.013618685  0.026140312 0.0011356302 
  264000    292.33448    12818.745     2924.207    19.039592 -0.024260296  0.001502036  0.038173078 
  265000    308.19745    13545.567     2924.207    16.706654  0.017623989  0.058505676  0.015147801 
  266000    280.40264    9085.0806     2924.207    18.526275  0.014699065  0.021791312 -0.0074995883 
  267000    297.10268    4763.7495     2924.207    20.116415  0.014892523 -0.004212099 -0.021033693 
  268000    300.03449    9757.8356     2924.207     21.50757  0.023891129 0.0050191461 -0.037617896 
  269000     289.9071    17049.942     2924.207     23.44842  0.027904078 -0.040769351 -0.0052469107 
  270000    288.19448    3546.0493     2924.207    25.830008 -0.023388883  0.019922218 -0.016484915 
  271000    279.44926    14775.893     2924.207    27.548125 0.0095200594  0.023903626 0.0071286199 
  272000     275.0943    13859.576     2924.207     26.92296 -0.035899765  0.034330808  0.057344179 
  273000    272.50667    8007.8922     2924.207    24.641338 -0.0089878551 -0.022676802 -0.0045319857 
  274000     310.2159    14615.228     2924.207    19.860292 -0.0050723045 -0.053480674  0.011589485 
  275000     291.1585    11673.472     2924.207    17.492234 -0.0099653891  0.026188474  -0.02622051 
  276000    282.15026    16080.147     2924.207    17.992238 -0.031046004 0.0046184348 0.0052234304 
  277000     305.6568    11473.318     2924.207    21.636275  0.017582235  0.051340361  0.011590883 
  278000     285.5279    14380.381     2924.207    28.539685 -0.016752706 0.0032471156 -0.013074687 
  279000    288.35786    11040.021     2924.207    33.858629  0.013586601  0.018278609  0.035249042 
  280000    309.49743     11803.04     2924.207    31.203827  0.045054054 -0.0055461422 0.0066033528 
  281000    294.92809    10053.082     2924.207    24.994379 -0.0036901708 -0.033483038  0.029065284 
  282000    284.10406    6387.4765     2924.207    24.467888 -0.00065194624 -0.029160439 -0.009566701 
  283000    306.40329     12878.74     2924.207    28.951749 -0.040709902  0.011325008 0.0046027633 
  284000    293.19962    7558.1161     2924.207    31.925877 -0.017454408 -0.011480651 0.00053634652 
  285000    307.34197    11900.527     2924.207    28.325778  0.011720736 -0.051432395 0.00073503558 
  286000    290.93709    15769.017     2924.207    26.815971  0.045347321 0.00046510131 -0.0080084317 
  287000    295.87844    5901.9957     2924.207    27.863948 -0.022011604  -0.01276108 0.0092047143 
  288000    274.55935    16496.072     2924.207    26.027775 -0.016171788 -0.025693572  0.019817631 
  289000    300.90773    9658.0621     2924.207    22.213209  0.011768276 -0.012639402 -0.017242444 
  290000    302.55534    1462.6825     2924.207    23.437618  0.055500542  0.027699738 -0.033711785 
  291000    279.32198    20690.918     2924.207    26.617714  0.017691007  0.013638285 -0.036342748 
  292000     295.0417    2983.6541     2924.207     30.99251 -0.015221124  -0.04026952 -0.0018209778 
  293000    298.69579     7902.425     2924.207    28.379755  0.017153764 -0.023572495 -0.0026276514 
  294000    291.84201    13880.188     2924.207    21.889391 -0.0043394016 -0.021749386 0.0020690487 
  295000    274.65619    708.61204     2924.207    18.711475  0.020941664 -0.0054102198 -0.033849158 
  296000    300.09317    14233.594     2924.207    20.478408 -0.0011064671  0.027816716 -0.025945312 
  297000    280.55943     12177.85     2924.207    25.828725 -0.015901246 0.0037615039  0.040908473 
  298000    308.59196    15857.635     2924.207    28.686968  0.015525985 -0.010646882 0.0049891415 
  299000    293.23233    8195.2734     2924.207    28.964005  0.035082009 -0.035414994 -0.043339703 
  300000    288.03202    4570.4441     2924.207    30.528679 -0.0037812656 -0.0045137225 -0.019364079 
  301000    271.08405    17160.667     2924.207    34.120013  -0.03101834  0.010814083  0.011357922 
  302000    293.21545    10451.986     2924.207    35.140743 -0.024250276  0.014740599 -0.029541768 
  303000    285.00954    7544.9631     2924.207    34.163566 -0.033627783  0.039232555  0.010389514 
  304000    285.42586     9397.099     2924.207    32.228303 -0.016734124 -0.0035470509 0.0070467311 
  305000    283.40899    13337.296     2924.207    32.633465  0.052385152 -0.016692357 0.0019711659 
  306000    284.66473    9495.9594     2924.207    34.482886 -0.037381189 -0.032358085 -0.017277215 
  307000    281.97623    8633.3272     2924.207    33.620764  0.023120423  -0.01561057  0.031862038 
  308000    296.67899    9965.2821     2924.207    30.016899 -0.016437364 -0.050148447 -0.013581437 
  309000    296.86658    9054.1069     2924.207    27.501492 -0.013980337 -0.023160336 -0.021276042 
  310000    297.15512    11188.699     2924.207     27.61519 -0.0088843842 -0.0070028732 -0.020753737 
  311000    286.26842    4126.4586     2924.207    28.507592  0.021226343 -0.010165182 0.0011025747 
  312000    290.90786    6225.0787     2924.207    30.066209 -0.021572005  0.018449071   0.01943848 
  313000    283.68412    11268.067     2924.207    32.884359 0.00088436693 0.0070410431 -0.021232341 
  314000    304.58109    10890.737     2924.207    35.155759 -0.023157087 -0.011533857 0.00013312678 
  315000    294.50313    12612.183     2924.207    35.012339  0.010695798  0.011957236 -0.0022445875 
  316000    282.12134    11868.132     2924.207    32.881301 0.0086572148  -0.01568006 0.0010788446 
  317000    296.53908    8190.9198     2924.207    29.098278  0.031965422  0.041015717 -0.020736472 
  318000     276.6087    16640.713     2924.207    27.216804 -0.037119637 -0.013875577  -0.03300265 
  319000    306.26059    5841.9031     2924.207    28.453453 -0.028204909 0.0074887795 -0.0052631302 
  320000    293.06669    13561.314     2924.207    29.787883 -0.019205919 0.0089022419 -0.0087319486 
  321000    297.84992    11844.762     2924.207     29.97521 -0.011403212 -0.047360232  0.027152407 
  322000    287.73003    12914.259     2924.207    28.692819 -0.0011637672 -0.020126513  0.033753728 
  323000    293.24747    7750.2413     2924.207    26.923452 -0.00016378188 -0.011748252 0.0097404748 
  324000    299.60176    13424.288     2924.207    25.196004 -0.028379995   -0.0153368  0.010925474 
  325000    303.37186    7989.2264     2924.207    27.904953 -0.0016486661 -0.0039965675  -0.02548232 
  326000    267.85736    6897.7078     2924.207    31.011873 0.0019349823 -0.018683451   0.03335492 
  327000    288.61712    22150.043     2924.207    34.178762   0.01523113  0.011619251 -0.024603983 
  328000    316.48757     5465.245     2924.207    34.784209  0.024286806  0.030327333  0.013110647 
  329000    299.36385    6886.1628     2924.207    30.630175 -0.011506189 -0.057522071 -0.059489295 
  330000    291.54871     14304.65     2924.207    26.943956 -0.021297402 -0.046195833 -0.018024681 
  331000    295.87037    3578.6458     2924.207    27.792276 -0.006900389  0.007613503 -0.027456914 
  332000    300.10163    17559.154     2924.207    30.854085  0.036032088  0.029397028  0.015632521 
  333000     278.4264    14230.275     2924.207    31.618302  0.028104774   0.04539001  0.012192145 
  334000    273.24006     8005.276     2924.207    27.720136 -0.035725795 -0.036708138 -0.0057312478 
  335000    315.90664    9360.8856     2924.207    21.733806 -0.041826145  -0.00472417 -0.0020355726 
  336000    294.60568    9748.2221     2924.207    16.176222 -0.0070252824 -0.010557612 -0.035737745 
  337000     265.2901    8806.5968     2924.207    15.375525 -0.028691546  0.015582022 0.0033369946 
  338000    283.05706    13989.342     2924.207    20.339528 -0.0034956403 -0.0036182195 0.0096317547 
  339000    297.74109    10360.873     2924.207    26.905575 -0.017717539   0.05837636 0.0092595968 
  340000    284.73816    10375.361     2924.207    30.210106  0.017113827 -0.010298701 -0.0086669568 
  341000    315.32022    12046.314     2924.207    29.271198 0.0051210415  0.048906111 0.0087521948 
  342000    275.92195    10742.445     2924.207    28.179882   0.01801785   0.01906213 0.0055506218 
  343000    295.12097    5323.9586     2924.207    29.405863 -0.013718375  0.055694643 -0.037945436 
  344000    292.20392    5238.0431     2924.207     29.12323 -0.010050516 -0.026438022 -0.006908279 
  345000    288.12724    18714.768     2924.207    29.028365 -0.013742012 -0.038044622 -0.029710099 
  346000    286.39001     5487.984     2924.207    30.729632 -0.0047730022 -0.031507678 0.00071025175 
  347000    288.29495    10141.493     2924.207    32.302642 -0.053558925 -0.036080092  0.011233841 
  348000    290.23107    11062.004     2924.207    32.976023 -0.022670244  0.013350176  0.030560108 
  349000    296.05465    6714.4709     2924.207    33.962268  0.018013345 -0.016836135 -0.018433663 
  350000    282.82979    17951.375     2924.207    35.277305  0.025360207  0.010500933 -0.028015075 
  351000    276.87392    5102.0557     2924.207    35.376249  0.021969832 -0.013977818  0.019936011 
  352000    315.59376    5648.1375     2924.207    34.275234  0.036360677  0.045457321  0.019055143 
  353000    282.79942    14920.899     2924.207    30.866636 0.0045241476  0.047640935  0.034873182 
  354000    292.22713    7659.5243     2924.207    23.774514 0.0088170761 -0.029360504 -0.0094005091 
  355000    278.27111    4274.2557     2924.207    21.562929  0.028403782   0.03765305 -0.0032573399 
  356000    307.54603    17050.002     2924.207    24.964171  0.014426527  0.021671009 -0.027547122 
  357000    288.73186    7924.1988     2924.207    27.868589 0.0020066386  0.033358267 -0.021543174 
  358000    291.97873    1849.5976     2924.207    28.858385  -0.02991304 0.0016060296 -0.023437447 
  359000    293.87604    15193.955     2924.207    29.885797 -0.024329365 -0.019375304 -0.022096282 
  360000    287.15126    4229.5895     2924.207    30.747349 -0.012518803  0.025108718 -0.021617019 
  361000    279.28955     15864.75     2924.207    32.802444 -0.012635167 -0.011366113 -0.0042837224 
  362000    302.24055    5986.0209     2924.207    34.553088 -0.002285857  0.022565198 -0.019139247 
  363000    284.58008    4605.4035     2924.207    33.140066 -0.0049045221 -0.023580665 -0.026812282 
  364000    288.07178    22458.719     2924.207    30.516107 0.0045330115 0.0042490976 -0.028941905 
  365000    295.43153    3544.6831     2924.207    28.614876   0.01058147 -0.048098912 -0.044893192 
  366000     293.3249    11124.206     2924.207    26.343771  -0.03625219 -0.0065746645 0.0014969496 
  367000    301.03325    14862.621     2924.207    24.151153 -0.042101242 -0.040073162  -0.02307622 
  368000    290.83939    8166.3908     2924.207    25.237975  0.013564952 -0.0038208653 0.0033402724 
  369000    286.99585    11436.924     2924.207    26.902364  0.058411673  0.037949566 -0.019426853 
  370000    289.14001    9214.7243     2924.207    25.314111 -0.0014108386 -0.00088610579 -0.018504151 
  371000    274.23847    13465.679     2924.207    22.617681  0.023457893  0.026492299  0.034708204 
  372000    295.83159    6524.3439     2924.207    21.588829  0.049064206 -0.0084764986  0.021708436 
  373000    286.15057    13599.847     2924.207    23.440251 -0.0049474317 0.0048844814  0.017869775 
  374000    284.87459    11244.812     2924.207    27.620893 -0.036153835  0.013533239  0.009613844 
  375000    294.99011    8171.0639     2924.207    29.178845 -0.006367109 -0.017274852  0.021733655 
  376000    282.55847    8388.3624     2924.207    24.711835 -0.029749055 0.0048862439 -0.044733182 
  377000    308.99004    2059.3766     2924.207    18.915839 -0.054312744  0.017096209 -0.017911207 
  378000    279.84659    9400.6182     2924.207    14.967901  0.035591575  0.018944068 -0.010968752 
  379000    292.22842    11233.313     2924.207    15.759495 -0.042859492 0.0055810827 -0.021514717 
  380000    298.31561    8361.5437     2924.207     21.37912 -0.0081633929 0.0089239814  0.033712447 
  381000    294.91144    8718.5939     2924.207    24.539845  0.032013533  0.015976496 -0.0096943405 
  382000    296.13471    681.36536     2924.207    25.530196  0.031746239  0.012206831 -0.0098691693 
  383000    278.20288    17580.152     2924.207    25.125393  0.023709076 0.0021395154 -0.011506133 
  384000    277.77166    9350.6636     2924.207    24.977757  0.028067829 -0.0070255517  0.032910993 
  385000    291.33714    948.32786     2924.207    24.445615 -0.010460574 0.0028974512  0.053895623 
  386000    282.41124    17068.097     2924.207    24.312742  0.013475075  0.014153651 -0.024720036 
  387000    282.54842    10633.285     2924.207    23.689266 -0.020386269  0.018947131  0.010488563 
  388000    293.87754    4917.0309     2924.207    24.383071  0.012643013 -0.0020047584 -0.037156339 
  389000    289.80071    6993.4819     2924.207    30.117474 -0.0075702752   0.02344446  0.012337705 
  390000     298.9802    12019.783     2924.207    33.524291  -0.01021828 -0.00024921438 -0.030326237 
  391000    301.15853    8316.1322     2924.207    31.002395 -0.045779957 -0.012303169 -0.0084180243 
  392000    295.36402    7448.9018     2924.207    25.685521  0.015753415 -0.001305082 0.0014658405 
  393000    292.22327    7749.4689     2924.207    22.258268 -0.0067632626  0.030249942 0.0018175926 
  394000    290.85031    11141.392     2924.207    23.656613 -0.015185625  0.030304761 -0.033538615 
  395000    301.14131    10408.935     2924.207    27.430091 -0.0091824548  -0.01683257  0.034221407 
  396000    257.29129    10558.632     2924.207    31.477748 -0.0032270117  0.031257358  0.024700213 
  397000    284.14343     14684.88     2924.207    34.369839  0.020465466 -0.020039848 -0.00038446241 
  398000    287.69802    9314.8906     2924.207    35.849617 0.0024467825  0.011214188 -0.024100034 
  399000    269.94931    4075.3248     2924.207    33.545494   0.01493162  0.018456861  0.012705365 
  400000    274.83777    20344.292     2924.207    26.909162 -0.028124782  0.026560199  0.014155838 
  401000    294.81987    3892.1751     2924.207    21.653038  0.025082957 -0.0069576116 -0.047217651 
  402000    295.14311    11329.284     2924.207    21.657968 -0.018088794  0.011954011  -0.01728464 
  403000     310.8874    5385.6406     2924.207    23.349508 -0.0016758468  -0.01801175  0.030384855 
  404000    280.13919    8671.4231     2924.207    25.899442 -0.011918332 -0.0060573417  0.034482836 
  405000    260.21739    14350.052     2924.207    27.603446  -0.02235518 0.0099848821 -0.016354777 
  406000    277.16112    5341.0975     2924.207    28.756913  0.014994587 -0.032693837 0.0086579416 
  407000    304.44296    17370.968     2924.207    29.909559 0.0023184114 -0.012210339 -0.0082538309 
  408000     301.4095    8975.4431     2924.207    31.074819  0.029472243 -0.020237336  0.053215647 
  409000    279.72914    16246.074     2924.207    28.624389 0.0057168521  0.006291338 -0.020864673 
  410000     296.0453      12184.6     2924.207    25.811998 -0.031836671 -0.030098057 0.00054409686 
  411000    284.17628    6910.9728     2924.207    25.018136 -0.0047793578  0.017667839 0.0038805268 
  412000    304.88353    17927.131     2924.207    25.482197  0.015465907 -0.0088004252 -0.030458198 
  413000    295.27122    4709.5219     2924.207    26.049948 -0.041352663   0.00160716 -0.0013222805 
  414000    283.20104    9786.8697     2924.207    26.869589  0.011913848 -0.0054421249 -0.010054439 
  415000     289.1946    14370.208     2924.207    28.507257  0.022191954  0.011952092 -0.017118297 
  416000    257.83405    6865.0765     2924.207    29.820035 0.0025001504 -0.011035766 -0.020501932 
  417000      304.684    10499.858     2924.207    28.283985 -0.012523403  0.010762574  0.014336075 
  418000    268.26396    19214.602     2924.207    26.234461  0.012621187  0.037400764 -0.0048369277 
  419000    272.00202    1920.7578     2924.207    25.761476 0.00094513184 -0.050132039 0.0025119171 
  420000    282.69587     14713.68     2924.207    27.834703  0.040151036  0.016631095  0.027783198 
  421000    260.31686    16549.087     2924.207     30.33239 -0.051712466 -0.013610694  0.018049352 
  422000    288.28313    13575.932     2924.207    31.933621  0.045216015  0.013999948  0.045813255 
  423000    287.70686    14440.799     2924.207    30.650501  0.031881141  0.029999632  0.045201818 
  424000    289.55031    4103.3389     2924.207    29.154367 -0.024891481  0.010032828  0.010466572 
  425000    290.78867    12904.362     2924.207    29.774831   0.03922612 -0.025178053 -0.023560019 
  426000    278.46859    9120.8482     2924.207    30.353829  0.036865182 -0.0025654992 -0.011038412 
  427000    269.35894    14278.693     2924.207    31.484931  0.034561416  0.013542857 -0.010057758 
  428000      283.553    9929.8459     2924.207    31.388155 0.0034761416 -0.031245937 -0.019942956 
  429000    287.85719    5282.5504     2924.207    30.910816 0.0078696029 -0.065390529  0.067505249 
  430000    281.10384    10985.753     2924.207    29.690185  0.053315703 -0.022961766 -0.027853718 
  431000    298.23755    7491.8635     2924.207     26.12534 -0.021143946 0.0079330479 -0.014832671 
  432000    295.67849    10952.182     2924.207    23.961181 -0.035271925 -0.0034780501 0.0028085743 
  433000    281.37519    11671.172     2924.207    22.607728 -0.046289967 -0.0065231862 0.0084208396 
  434000     290.5761    11956.676     2924.207    22.655184   0.03266553 -0.021414066 0.0018454122 
  435000    270.55985    12811.033     2924.207     25.50051 -0.0094677538 0.0025183308  0.017638796 
  436000    293.46449    12932.371     2924.207    27.676875 -0.0073076546 0.0081434293  0.016101325 
  437000    284.98202    6432.2386     2924.207    29.509812 -0.012983013 -0.0065272889 -0.014006711 
  438000    267.70217    14631.049     2924.207    28.619482 0.0020273441 0.0059508274 -0.023221172 
  439000    279.10099    7777.2954     2924.207    25.696944     -0.02275 -0.0045987004 -0.036263268 
  440000     280.2503    9650.4317     2924.207    24.074977  0.007305049  0.001867195 0.0016893117 
  441000    290.61593    10643.098     2924.207     23.49602  0.020849445 0.0023812462 -0.034813788 
  442000    294.70794     5151.914     2924.207    24.118092  0.017232933 -0.011038029 -0.0031543991 
  443000    297.71509    18461.263     2924.207    23.658233  0.047569033 0.0073471672 -0.012358442 
  444000    293.77324    7028.9548     2924.207    24.320594 -0.0029870426  -0.01570506 -0.013804695 
  445000    272.49948    5443.0907     2924.207    25.495921  0.024957616 -0.014971001 -0.026671655 
  446000    275.03537        21703     2924.207    25.932364  0.027514264  0.038120075 -0.042178942 
  447000    315.55688    3833.7114     2924.207    26.197847  0.045364063 -0.017625936  0.010536684 
  448000    294.46459    13998.578     2924.207    28.051385  -0.02543265 -0.0074036689 -0.0013327534 
  449000     269.6828    9242.3005     2924.207    30.394857 -0.029599448 -0.016253149 0.0057391333 
  450000    284.42786    14869.436     2924.207     30.95932  0.027696866  0.036710831 -0.033329393 
  451000    296.02008    5645.7165     2924.207    28.992739 -0.0083495658 -0.013966028 -0.001396814 
  452000    285.46869    11056.454     2924.207    24.595153  0.020693314  0.040400973 -0.0055662237 
  453000    309.16663    11003.602     2924.207    22.138615 -0.008029742  0.046619057 -0.021738852 
  454000    310.15175    11683.497     2924.207    24.031155  0.015829423 0.0062238657 -0.0016721851 
  455000    280.25833    9714.0118     2924.207    29.153693   0.04183812 -0.0018276491  0.025991053 
  456000    277.20805    10955.219     2924.207    32.860554  0.010783932 -0.0028166567  0.025973788 
  457000    282.59883    10368.287     2924.207    33.352398 0.0092883523 -0.006038816  0.013876184 
  458000    295.91245    4676.3204     2924.207    31.435863  0.006092789   -0.0172361 -0.0059282576 
  459000    283.72118    12220.146     2924.207    27.278056 0.0060864139 0.0025732629 -0.0010468482 
  460000    275.81553    8841.2651     2924.207    25.831233 0.0085121315     0.036486 -0.0021943347 
  461000    260.67141    12985.249     2924.207    25.339839  0.017136644 -0.014489911 -0.00059470771 
  462000    290.63877    5683.1296     2924.207    25.132132  0.012757716 0.0079366949 -0.043450094 
  463000    282.13927    9842.4619     2924.207    26.560799 -0.040399313 0.0029172731 -0.018864787 
  464000    304.27593    19265.548     2924.207    25.040526 -0.0098892801  0.027445998 -0.022772888 
  465000    281.38423    3216.1307     2924.207    22.524247 0.0013123544  0.029083807 0.0039329006 
  466000    299.05156    8692.8449     2924.207    21.597783 -6.3665911e-05 0.0083502609  0.025477157 
  467000    275.68228    9497.6809     2924.207    20.551916 -0.00023192167 -0.025970457 0.0055661521 
  468000    280.83345    6614.4442     2924.207    20.727225 -0.0057234921  -0.00493456 -3.3750258e-05 
  469000    276.32671    10474.171     2924.207    22.418144  -0.03834821 0.0028886228  0.013710693 
  470000    292.79632    6567.4756     2924.207    24.539441 -0.0073788677  0.037953456  0.010970318 
  471000    281.25959    15310.173     2924.207    27.384327 -0.0027184583 -0.0022792806 -0.016588272 
  472000    293.16984    4059.4828     2924.207     31.01844  0.019453992 -0.0090733207 0.0050317063 
  473000    281.83229        10541     2924.207     33.11428 -0.018569858 -0.012213636  0.010526758 
  474000    289.73686    13521.217     2924.207    30.863311 0.0096788284 0.00026673208 -0.010357937 
  475000    276.82458    10560.657     2924.207    27.072061 -0.0062960948 -0.023464541 0.0042852675 
  476000    284.60333    1623.7004     2924.207    25.534298  0.028126186 0.0083553407 -0.0038251177 
  477000    253.93675     23597.47     2924.207    27.871704  0.054457669 0.0054156269 0.0019851988 
  478000    288.97077    9947.3645     2924.207    28.876432  0.017891914 -0.045692831 -0.045180341 
  479000    309.72096    7142.4469     2924.207    31.347901  -0.02069819  -0.04861455 0.0070463994 
  480000     287.5402    4488.0492     2924.207    33.287123 0.0034954831 -0.005961603 -0.0027174874 
  481000    277.77646    10923.878     2924.207    31.142537 -0.016517839 0.0062745735   0.03123446 
  482000    267.43406    15491.318     2924.207    27.684942 -0.009296693 0.0017455869  0.036752385 
  483000    297.07746    3007.5275     2924.207    25.740944 -0.012911204 0.0032147776 -0.0066181011 
  484000     292.2076    10520.396     2924.207    30.059178 0.0032230658 -0.0060733275  0.005817973 
  485000    274.40414    9236.3843     2924.207    33.673971 -0.013051529 -0.016580436 -0.025674932 
  486000    296.79067     9339.968     2924.207    35.384843 -0.020920137  0.020355269 0.0017379527 
  487000    269.94147    4488.1258     2924.207    34.277132 -0.030518864 0.0011987488 -0.038926089 
  488000     290.2777    5783.0238     2924.207    31.352458 0.0047849948  0.018656114 0.0076207663 
  489000    275.75785    15290.848     2924.207    27.838036  0.010167838   0.01489991  0.013655206 
  490000     285.4078    9929.3244     2924.207    24.136935 -0.0035559267 0.0035486779 -0.016329566 
  491000    300.26306    6213.3739     2924.207     23.81861  0.018160447 0.0074415479  0.016595398 
  492000    293.44234    6792.2528     2924.207    24.998996  0.019477689 0.0012158074 0.0074367122 
  493000    291.48756    10959.108     2924.207     26.22903 -0.028127825 -0.0018895584 0.0094923187 
  494000    278.57369    7030.3659     2924.207    28.180378  0.014458922  0.038690341 -0.018101073 
  495000    287.56793    12063.548     2924.207    29.174764 -0.025340903 -0.0016560572  0.008940636 
  496000    292.50735    5885.8787     2924.207    30.409137 0.0089666218 -0.021303904  0.011939698 
  497000    291.11297    16476.067     2924.207    30.083954 0.0025859867 -0.022861843 -0.040269962 
  498000    271.03289    4661.2594     2924.207    28.824558  0.034089128  -0.01043764 0.0013106071 
  499000    299.65337    9199.0329     2924.207    25.751891 -0.033882274 -0.026023045 0.0067357677 
  500000    302.82446    10824.397     2924.207      23.5103 -0.0091428911 -0.025733535 -0.00015923803 
  501000    288.17541    15074.999     2924.207    24.649789 -0.0057063019 -0.026530413  0.060553489 
  502000    298.16276    4997.5523     2924.207    28.547899 -0.0066281401 0.0094537855 -0.0021656392 
  503000    276.95888     10133.16     2924.207    33.054368  0.022918542  0.048062748 -0.019005418 
  504000     301.6621     5874.926     2924.207    32.015091  0.055533268  0.012213689  0.011304409 
  505000    279.90138    11525.685     2924.207    27.278201 0.0028526597 0.0038707467 0.00088265836 
  506000    300.16911    7463.8363     2924.207    23.028534  -0.02220859  0.025288972 -0.0044465506 
  507000    293.05325    5236.1793     2924.207    24.248461  0.013670598  0.026534015  0.022743811 
  508000    290.67969    14763.308     2924.207    29.910025 -0.0028178117  0.017819693 -0.023783172 
  509000    289.84514    5468.1544     2924.207    33.739103 -0.0029412483 -0.030622991  0.017730761 
  510000    275.47218     21220.36     2924.207    33.086183  0.028309145   0.04816072  0.032106338 
  511000    279.47305    3203.0503     2924.207    31.286724  0.030829866 0.0012777437  0.025569132 
  512000    276.04367    2651.2957     2924.207    31.083038  0.001651561 -0.0029666217  0.037657648 
  513000    281.85895    16471.407     2924.207    32.188828  0.015703905 -0.0036407463  0.029398256 
  514000    289.97421    8530.8874     2924.207    32.845833  0.043257258  -0.01135658  0.010696098 
  515000    304.17172    14635.636     2924.207    33.585748 -0.008428313 -0.029039946  0.013088464 
  516000    292.31384      4585.42     2924.207    33.822847  0.013481791  0.026586297 -0.00018952961 
  517000    290.88158     9313.553     2924.207    33.266599  0.022520097 -0.025726936 -0.00074174628 
  518000    293.63199    7380.9388     2924.207    33.653464  0.011628819 -0.029050125  0.049599752 
  519000    298.21567    8874.5866     2924.207    32.831316 -0.0092194914  0.015070917 -0.042182744 
  520000    293.93856    5302.8904     2924.207    30.630398 -0.020150815  0.025541871  0.029470423 
  521000     270.3647    18305.308     2924.207    29.371887 -0.0094814816 -0.024566379 -0.00057477766 
  522000    297.48521    970.24358     2924.207    28.704689  0.024813582  0.010800732 0.0025763199 
  523000    288.56072    13016.479     2924.207    26.292476 -0.043363969 -0.030803056 0.0001724843 
  524000    295.50108    17271.936     2924.207      25.9469 -0.049011083 -0.003688051 -0.016268037 
  525000    291.84939    5370.8603     2924.207    31.025827 -0.0081723234 -0.019452762 -0.019011177 
  526000    289.84816    7524.1236     2924.207    35.223326  0.013044792 -0.00036391398 -0.0070991525 
  527000    298.78544     3142.839     2924.207    35.245479 -0.009697754 -0.0012671815 -0.002001343 
  528000     275.2465    5682.5361     2924.207    31.193661 0.0074323697 -0.013847434 -0.011536222 
  529000    276.45321    13355.992     2924.207    24.863181  0.017381947 -0.048780516 -0.020522665 
  530000    285.54341    1039.2125     2924.207    21.508602  0.022465571 -0.0043998765  0.018838566 
  531000    286.27563    14289.741     2924.207    22.852903 -0.0020632726  0.043678822 0.0074377787 
  532000    290.31616    5998.0793     2924.207    26.622411 0.0051495928 -0.021636153  -0.01171456 
  533000    273.52393    11349.177     2924.207    27.051214 -0.019529301 0.0072330899 -0.0023408219 
  534000    286.59641    3873.0416     2924.207    21.713553 -0.021174648 0.00022655456  0.026103275 
  535000    282.00888    10143.178     2924.207    16.419576 0.0086924247 -0.048743973  0.031526201 
  536000    275.59778    14777.887     2924.207     14.97468  0.011449814 -0.014973584  0.052516753 
  537000    292.22395    -106.3928     2924.207    16.069159 -0.041079913  -0.01336084 -0.0067597889 
  538000    288.45898    15790.448     2924.207    20.271292 -0.014965351 -0.00053174231 -0.021418711 
  539000    292.52792    9121.4904     2924.207    26.920361 0.0021381352 -0.00069633275 -0.027907179 
  540000    286.71396    4000.1276     2924.207    32.312116 -0.030964814  0.016383459 0.0053280397 
  541000    294.05273    5940.7937     2924.207    33.413003 -0.0024846107  0.033439972 -0.016317029 
  542000    300.49606     8665.689     2924.207    31.589306  0.011874917 0.0090426254  0.026693936 
  543000    295.10368    5371.4636     2924.207    27.783918 -0.038799877 -0.021783743 -0.031489306 
  544000    272.06525    14601.127     2924.207    24.108246 0.0020851953  0.020146891 -0.018857375 
  545000    267.33241    10143.592     2924.207    23.604931  -0.03172522 -0.018488531 -0.0043882911 
  546000    276.88984    5491.8789     2924.207     24.17295 -0.013626419  0.018435448 0.0057465879 
  547000    296.09827    7653.6782     2924.207    26.823502  0.023563911  -0.01782967 0.0073756164 
  548000    295.66426    6641.8435     2924.207    28.605296  -0.01096129   -0.0026149  0.011123202 
  549000    303.85192    12690.422     2924.207    27.413148  0.012892285 0.0065387626  0.019539066 
  550000    279.97032    3686.8365     2924.207    27.433494 -0.017979424  0.031819037 0.0081848517 
  551000    278.32547    3594.4304     2924.207    29.666789 -0.024623581 -0.0014308844  0.052162434 
  552000    271.58405    7763.2927     2924.207    32.417193  -0.01600091 -0.0045111162  0.022709401 
  553000     267.0765    15778.041     2924.207    34.009555   0.02897345 0.0019175412 -0.0090495623 
  554000    297.15321    5782.7539     2924.207    33.651549 0.0046840013  0.023139623  0.031968511 
  555000    284.21962    11785.864     2924.207    31.640017 -0.016319128 -0.0037417882 -0.0072875287 
  556000    280.58136    6036.3134     2924.207    29.618991 -0.0052379458 -0.029604322 -0.003768021 
  557000    290.60333    11149.165     2924.207    29.028508 -0.016841064 -0.036460901  0.013132618 
  558000    278.64793    8003.9432     2924.207    28.514943 -0.023294672 -0.020690241  0.044177664 
  559000    285.23642    6253.7303     2924.207    28.325289 -0.0079490297 0.0017213866   0.01269317 
  560000     285.9782    8543.8614     2924.207    29.496052  0.032570308  0.004513567 -0.060679799 
  561000    312.05923    7269.9359     2924.207     28.36659 -0.019545613 -0.021378825  0.003653116 
  562000    295.92145    7454.9263     2924.207    27.450192 0.0082991665 -0.031622485 0.0032945613 
  563000    300.91387    1192.2368     2924.207    28.168581 -0.030503616 -0.019636216  0.033296261 
  564000    273.81173    12555.732     2924.207    28.606669 -0.018306151    0.0189318  0.012135124 
  565000    299.65013    13138.914     2924.207    27.545104  -0.00183681 0.0075752315 0.0017167737 
  566000    292.53317     3448.098     2924.207    26.716461 0.0054023454 -0.016448981  0.036370454 
  567000    276.19066    9617.3737     2924.207    27.813214 -0.023068885 -0.013166526 -0.017146829 
  568000    298.01829    5966.7787     2924.207    28.379779  0.022370413  0.028218507 -0.034678113 
  569000    302.95897    5623.4785     2924.207    29.900272 0.0052810361  0.021756224 -0.017167729 
  570000    297.72465    14570.023     2924.207    30.777613 0.0043929737 0.0050595678 -0.020586034 
  571000    281.17274    6747.7336     2924.207    32.480165 0.0065534433 -0.010237392 -0.008055979 
  572000      294.068    9256.1724     2924.207    33.287896 0.0044495434 -0.014594092 -0.020516984 
  573000    270.83281    12850.207     2924.207     34.88453  0.024140103  0.011714002  0.032122342 
  574000    288.72213    2790.0603     2924.207    35.621709  0.044400654 -0.043913081 -0.052488666 
  575000    279.96588    7833.9215     2924.207    35.814488 -0.011997435 0.00056514545 -0.049495815 
  576000    276.44244    3667.9357     2924.207    34.621347  -0.02647252 -0.056705505  0.023780296 
  577000    287.28235    11659.074     2924.207    31.640259  0.029507699  0.032839889  0.016696903 
  578000    284.84891    7164.7548     2924.207    28.559021  -0.01882501  0.011977721  0.015337998 
  579000    283.46182    8272.1399     2924.207    28.485034 -0.0041077153  0.026981304 -0.032790864 
  580000    281.60813     9029.756     2924.207    30.693443  -0.02837428 -0.013865364 -0.029702212 
  581000    281.09227    4955.2622     2924.207    32.941315  0.040115251   0.04047925 0.0079253639 
  582000    280.74031    19889.506     2924.207     32.08576 -0.0014471612  0.025040577 -0.013126567 
  583000    282.78954   -1066.9251     2924.207    28.867548  0.020140027  -0.01140413  0.020664016 
  584000    286.55305    15628.063     2924.207     25.04738 0.0020367416 -0.0082972691 -0.011235374 
  585000    298.79859    7084.7447     2924.207    21.630672 -0.0065144002  0.023940339 -0.0079998719 
  586000    274.27148    7677.0566     2924.207    20.266762 -0.0037943973 -0.0080482556 -0.024279078 
  587000    282.71932    11046.288     2924.207    20.862908 0.0019250522 -0.052919481  0.015394474 
  588000    290.71397    9220.5027     2924.207    24.594008 -0.013355384 -0.024794091 -0.033547723 
  589000    299.09812    11954.521     2924.207    29.006657 0.0040835636 -0.014997696  0.018744993 
  590000    293.57603    12555.705     2924.207    32.876548 -0.0050226502 -0.031708106 -0.033818973 
  591000    284.65914    4393.3765     2924.207    32.409051  0.036960099 0.00080305659  -0.03345765 
  592000    283.03481    10727.606     2924.207    28.499788 0.0051696202  0.010190439 -0.010507158 
  593000    282.44131    6694.8519     2924.207    24.679601 -0.007692164  0.051758385  0.014189048 
  594000    274.37134    10297.495     2924.207    20.542059 -0.0049708234 -0.0019770581  0.039443813 
  595000    279.20799    8595.3828     2924.207    19.725545 -0.0044122739 -0.015386408  0.010407385 
  596000    285.46852    3493.1154     2924.207    22.644377  0.014737471  0.027767038  0.053207984 
  597000     291.0216     13825.22     2924.207    25.369501  0.040518787 -0.023446519  -0.01581558 
  598000    261.27986    7947.6689     2924.207    27.069867 0.0041064335 -0.013921878 0.0072357196 
  599000    272.59077    7865.7191     2924.207      27.2289 -3.7608708e-05 -0.021670825  -0.01845338 
  600000    276.38023    7989.7312     2924.207     27.90038  0.015166013 -0.0092630128 0.00086556139 
  601000    258.58773    14699.298     2924.207    29.355561  0.018301361 -0.00050429405 -0.0055103061 
  602000    270.24784    3905.6693     2924.207    29.879879  0.018621211 -0.0037426904 0.0078303788 
  603000    262.80767    10488.031     2924.207    28.321656  0.014126848 -0.011470717 0.0046879948 
  604000    276.97721    15813.267     2924.207    25.362303   -0.0396621 0.0096984704 -0.024247224 
  605000    275.07027    8397.5851     2924.207     22.51881 -0.016024603 -0.010265896 0.0046545248 
  606000     288.2572   -1185.7424     2924.207     23.81379 -0.00043051074 -0.012959533  -0.02170185 
  607000    277.28104    12147.899     2924.207    28.463954 -0.023966904  0.016090131 0.0013695788 
  608000    273.12736    7522.9957     2924.207     31.75567  0.048985515 -0.036076242 -0.013155199 
  609000    270.96294    8444.2746     2924.207    31.451139 -0.0069388085  0.013592867 -0.006700214 
  610000    280.47359    4352.4296     2924.207    30.711586 -0.0089698018  0.025322361 0.0036722711 
  611000    287.36555    13979.714     2924.207    26.649261 -0.021224432 -0.014366243   -0.0117689 
  612000    282.03253    5079.0542     2924.207     23.95716  0.042535551 -0.0022025209 -0.034668624 
  613000    287.32272    7016.4545     2924.207     23.59618 -0.0077128992 0.00038686552 0.0027181108 
  614000    297.08307    13890.476     2924.207     26.40388 -0.0073086544  0.014034826  0.034540819 
  615000    281.05527   -1501.5888     2924.207    30.592189 0.00019696777 -0.017595286 0.0035606775 
  616000    289.81486    7796.7799     2924.207    33.936471 -0.0051293329 -0.0065746029 -0.024916522 
  617000    293.10277    18289.082     2924.207    33.878947 -0.011048333  0.016711961 -0.039000868 
  618000    291.05536    3488.1599     2924.207    31.700811 0.0080373189  0.007444008 -0.0040079708 
  619000    292.63702    13830.486     2924.207    29.721775  0.017225617  0.022043843  0.027128698 
  620000    268.77176    15865.016     2924.207    31.736359 -0.0025494929  0.011743436  0.038337605 
  621000    290.97855    1413.9514     2924.207    34.259217 -0.0065593008 -0.034858953   -0.0185971 
  622000    298.42299    11713.624     2924.207    36.006961 -0.021575573 -0.0098585615 -0.030448103 
  623000    285.70643    6105.9237     2924.207    35.023011  0.016179773 -0.0084355576  0.038255722 
  624000    261.73036    6000.1089     2924.207    33.750918  0.029675698 -0.0013665574  0.054499365 
  625000    276.79052    8301.0345     2924.207    33.118076 -0.052177071 0.0073619826 0.0018368237 
  626000    278.22937    3206.0652     2924.207    32.173079 0.0047804698 0.0068111591  0.017426557 
  627000    289.11482    1739.6641     2924.207    29.985831  0.012104441 -0.0035418663 0.0046813052 
  628000    285.25361    11679.278     2924.207    27.327219 0.0082540268 -0.039832029 -0.036791696 
  629000    290.29904    8735.8483     2924.207    26.557354 0.0022215426 0.0068102455 0.0011233485 
  630000    277.68809    12981.873     2924.207    28.789917  0.022191644 -0.019579086  0.012037751 
  631000    292.96093    7184.8115     2924.207    30.284917 -0.0088738067 -0.027647561  0.016074309 
  632000    275.97286    9505.2836     2924.207    30.091071 0.0023691778  0.024922966 -0.0044478986 
  633000    278.82418    8901.8973     2924.207     28.97547 -0.029964219  0.012487718  -0.01040333 
  634000    256.74079    7890.7266     2924.207    27.673893  0.031221054  0.020879091 -0.0044116275 
  635000    288.87061     9963.115     2924.207    26.320781  0.018342986 -0.026743387 0.0095716354 
  636000    277.41981    6684.9205     2924.207    24.680194 0.0011228286  0.015488433  0.017121868 
  637000    290.72715    9271.4162     2924.207    22.417487 0.0033938972 -0.0010285481  0.047418521 
  638000    271.04151    8810.5795     2924.207    23.218663  0.014209329 -0.017855909   0.02716484 
  639000     264.6747     6445.352     2924.207     25.40709 -0.00072145453 0.0059986931 -0.026037798 
  640000    276.72946    9723.6146     2924.207     26.81015 -0.023595879  0.029570577 0.0034017237 
  641000    269.56865    17781.939     2924.207    28.869343 0.0057806836  0.035574123 -0.0058707478 
  642000    292.30135    1802.0091     2924.207      30.3649 -0.017154818  0.038437748  0.018633919 
  643000    292.29744    6676.9734     2924.207    30.353537 -0.008976199 0.0097327471  0.036875134 
  644000     294.7754    17887.138     2924.207     28.51101 -0.0033203746  0.041435808 -0.015577182 
  645000    288.21122    8781.8381     2924.207    26.905534 -0.012247237  0.026347488 -0.0078012085 
  646000    294.53064   -1210.5746     2924.207    27.840736 -0.030947675  0.026201963  0.012374635 
  647000    287.95124    14749.493     2924.207    29.782067 -0.017846932    0.0298769 -0.043552346 
  648000    285.29633    8938.3693     2924.207    31.373562  0.013908658 0.0051824864 0.0012170218 
  649000    279.60073    3105.0096     2924.207    32.393177 -0.003582725 0.0085485975  0.014232844 
  650000    308.42154    11673.566     2924.207    31.822717 -0.0030202868 0.0088203362  0.021305665 
  651000    263.54268    4994.2807     2924.207    29.447293  0.013087086 -0.0030754344 -0.0082634654 
  652000    288.88686    7527.1956     2924.207    26.272336 -0.017351611 -0.032255695  0.023270207 
  653000    288.43979    9294.0636     2924.207    23.928872  0.013369926 -0.0062251077 -0.00010722151 
  654000    287.43362    14090.991     2924.207     23.32493  0.008452492 -0.0062793805 0.00018542211 
  655000    281.42994    3132.3737     2924.207    22.558865  0.027797453  0.024019642 -0.0084272667 
  656000    288.04692     11979.53     2924.207    22.831337 -0.00042140906 -0.0011337121   0.01486351 
  657000    289.64945     11341.54     2924.207    24.933438 0.0033995554  0.018616984  -0.01206721 
  658000    274.50091    9378.9114     2924.207    29.606609 -0.0035038157 -0.010790203  0.012252086 
  659000    260.75256    6140.2563     2924.207    30.710197 0.0089778333   0.00608635  0.018185953 
  660000    294.16084    7706.8634     2924.207    30.364029  -0.01527893 -0.018323663  0.012861308 
  661000    295.12041    6280.0746     2924.207    28.686749 -0.019028074  0.035144778  0.033226463 
  662000    289.64636    7660.9944     2924.207    26.443246 -0.022403112 -0.0058937216 -0.036932425 
  663000     273.8881     10008.67     2924.207    25.059746 0.0056535092 -0.004926155   0.01258848 
  664000    268.63976    9158.1947     2924.207    23.546251 -0.0096584052 -0.00078748092  0.032550133 
  665000    289.59045    8328.7015     2924.207    22.742818  0.038831576 0.0024906367  0.012770488 
  666000    278.87901    8966.1121     2924.207    24.429295 -0.0048717109 3.4082878e-05 -0.036849588 
  667000    289.81461    13142.385     2924.207    25.317875  0.033740009  0.018443425  0.034299892 
  668000    278.87333    10189.183     2924.207     25.08822 0.0033654657 -0.010610234  0.044471144 
  669000    271.96724    2615.6963     2924.207    23.863694 -0.0022769206 0.0085969614  0.023694554 
  670000      288.221    11239.106     2924.207    24.579134  0.034872353  0.028430992 -0.023253569 
  671000    272.89989    10938.443     2924.207    27.602683  0.018599683   0.03570626 -0.050438892 
  672000    281.46509    4825.4217     2924.207    28.486152  0.022352183  0.027252232 -0.021528071 
  673000    279.74799    17754.798     2924.207    28.439097 -0.0090356077 -0.025819614 -0.035228233 
  674000    287.75755     7608.775     2924.207    31.619625  -0.02713115 -0.020874286 -0.036861687 
  675000    287.11995    9203.3501     2924.207    33.307732 -0.012430422 -0.011771572 0.0072364092 
  676000    281.08127    1498.3849     2924.207    33.080935 -0.013084812  0.024216201  0.019844589 
  677000    277.09383    3211.2902     2924.207    32.221333  -0.01033319  0.015958462 -0.011903617 
  678000    273.50723    15210.526     2924.207    31.555541 -0.017420186  0.026545765  0.039741858 
  679000     281.0487    13506.634     2924.207    30.099628 -0.024994662 -0.00039889318 -0.022565892 
  680000     271.2382    7528.1326     2924.207    28.201564  0.017432628 -0.029364382 -0.018519221 
  681000    293.96873    11085.509     2924.207    27.725372 -0.018002224  0.033752225 -0.0052014085 
  682000    288.97644    3517.0691     2924.207    26.588097 -0.0096943524  0.049349127  0.024514333 
  683000    305.06407    16931.379     2924.207    24.736791 -0.0069346525  0.030140053  0.036791228 
  684000    279.02079    6516.6246     2924.207    24.337186 -0.0023620349   0.03961649 -0.0085506066 
  685000    273.28422     11701.79     2924.207    22.856806 -0.011969224 -0.00058333543 -0.0013408547 
  686000    262.16915     9542.211     2924.207    22.807227 -0.014942741  -0.01275274  0.049568793 
  687000    279.50441    7095.7027     2924.207    25.271791  0.029008247   0.00718269  0.022217032 
  688000    264.98521     17693.25     2924.207    26.268809 -0.015838369 -0.0054696125  0.023346316 
  689000     290.7003    4169.9706     2924.207    25.891489 -0.012481287 -0.022494078  0.010147775 
  690000    308.94187    7518.4912     2924.207    25.276972 -0.030669057  0.027873755  0.029708973 
  691000    277.36992    13640.663     2924.207    24.837201 -0.038493627 0.0089865159 -0.020487948 
  692000    297.59551    7837.3818     2924.207    25.245287 0.0094176739  0.024168417  0.016510425 
  693000    284.27129    13228.864     2924.207    25.644927   0.03568992 0.0093769224 0.0053840732 
  694000     292.5051    5814.3686     2924.207    26.472113 -0.0012205018 -0.036728819  0.013123585 
  695000    284.25154    13081.194     2924.207    27.498541 -0.0060637471  -0.01566214 -0.036713289 
  696000    272.71594    10573.646     2924.207    28.326632 0.0092925538 0.0066354692  0.011429758 
  697000    296.21595    3371.7661     2924.207    30.355045 -0.0035590399  -0.03035881 -0.040223356 
  698000    267.36248    168.13002     2924.207    32.945188  0.010209599 -0.022253239 -0.0078350111 
  699000      264.317    16694.213     2924.207    34.003822 -0.016553987  0.002647502 -0.011470499 
  700000    280.09986    4707.4702     2924.207    34.681525 -0.0042198689 -0.0075852772  0.019257732 
  701000    275.59865    810.16157     2924.207    34.134894  0.021823476 -0.0065608449 0.0062339475 
  702000    273.40244     17979.89     2924.207    30.989206 -0.032218596  0.032747238  0.012659112 
  703000     281.4246    14853.324     2924.207    26.910674 -0.016792603 -0.015852734 0.00030286906 
  704000    271.58028    3068.3297     2924.207    23.278849 -0.0031184038  0.058121656 -0.0080276495 
  705000    283.96444    4198.2614     2924.207    24.031454 0.0087982518  0.022914822 -0.0081399624 
  706000    266.48387    15762.583     2924.207    24.805226 -0.0070929879  -0.00720526 -0.034750209 
  707000    263.11667    1650.9535     2924.207    24.875642 -0.023496062  0.020202354 -0.008089081 
  708000    275.86301     2729.192     2924.207    25.932527  0.066362173  0.035066002  0.024980475 
  709000    254.95491     16700.77     2924.207    27.904557  0.047205118  0.021202771 -0.0021541587 
  710000    273.97315    17738.441     2924.207    30.311522  0.008355254 0.0066212571 -0.036734261 
  711000    297.44666    2072.6922     2924.207    32.746818  0.033597695  0.016147317 0.0034744998 
  712000     272.5086    5737.8835     2924.207    35.429195   0.02020402  0.018576687 0.0091156459 
  713000    291.43547    13768.721     2924.207    35.848025 -0.031043691 -0.016732494 -0.0094693753 
  714000    275.23144    8055.1346     2924.207    34.299119 0.0086932046 0.0036171579  0.002433957 
  715000     271.1183    5095.6996     2924.207     32.47744 0.0097057578 -0.023300607  0.013013212 
  716000    279.68896    16737.784     2924.207    30.245235 -0.0068269004 -0.010134861  0.011644583 
  717000    292.70998     2316.686     2924.207    31.162232 -0.033523524 -0.0049295911 -0.036292455 
  718000    285.72813    8112.0298     2924.207    30.620558 -0.00044403152 -0.027644037  0.014885708 
  719000     301.9397     7162.768     2924.207     29.61661 -0.0069082012  0.014647196 -0.035812437 
  720000    271.35352    6319.0947     2924.207    30.326104 -0.0060161829  0.027592891 -0.012626301 
  721000     283.3464    13667.446     2924.207    31.738073 -0.030905246 -0.021032392 -0.027546832 
  722000    283.09731     8081.618     2924.207     31.21795  0.014753435 -0.0070804314 -0.0034305181 
  723000     270.2923    13152.571     2924.207    28.945517 -0.0097095371 -0.0042436894 0.0036754211 
  724000    274.49397    6672.6025     2924.207     25.88268  0.032065006 -0.0090171227 -0.0075173337 
  725000    291.57378    11773.145     2924.207    23.647483  0.027145291   0.02114115  -0.01015162 
  726000     275.9374    7780.9726     2924.207    23.825483 -0.012719043  0.014404854  0.052517229 
  727000    277.35487   -171.61227     2924.207    25.300066  -0.02524978  0.014570318 -0.012349591 
  728000    282.43993    12653.864     2924.207     28.58056 -0.023711864 0.0016646777 -0.027395346 
  729000    272.88029    10849.024     2924.207    29.200149 -0.00010733733   0.01931523 -0.024783053 
  730000    278.15882    2145.2609     2924.207    28.131704 -0.018496376 -0.034382114 -0.0038356291 
  731000    290.16909     16996.91     2924.207    25.797464 -0.038599942 -0.021764947 -0.015572695 
  732000    292.02311    5139.0154     2924.207    24.396886  0.024527903 -0.015101676 -0.040356675 
  733000    268.24175    8821.4834     2924.207    24.285742 -0.019544029  0.018707341  0.019302844 
  734000    290.02755    5646.2415     2924.207    26.386607 -0.0054893543 0.0004813515 -0.044071802 
  735000    283.05852    3974.1586     2924.207    27.777574  0.046475688  0.019783493 -0.0078957123 
  736000    269.74048    6226.9235     2924.207    29.224431   0.01759934 -0.014031248 0.0083945156 
  737000    275.00714    9883.3676     2924.207       29.046   0.02510226 0.0013577376 -0.037330045 
  738000    299.01901    9547.2349     2924.207    30.237374  0.022793428 0.0097211065  0.021473858 
  739000    291.74683    9273.6249     2924.207    30.287395  0.010217939  0.011211111 -0.0064362699 
  740000    300.60849    1421.2187     2924.207    27.813979 -0.036468327 -0.021378042 -0.0083990504 
  741000    281.74497    12151.061     2924.207    25.977961 -0.0046165383 -0.014754987 -0.0038295576 
  742000    279.87386    7673.5714     2924.207    25.204404 -0.0048180749 -0.00018052859  0.022807174 
  743000    293.51483    5596.8225     2924.207    24.947778  0.021606422 -0.0044163214  -0.01954034 
  744000    282.04681     7235.767     2924.207    25.705194 -0.028448815 -0.034400265  0.041754023 
  745000    267.76358    5454.4741     2924.207    27.459734 0.0076236695  0.022637236  0.037724419 
  746000    272.50094    11013.306     2924.207    29.364361 0.0029019031 -0.032302425 -0.021677029 
  747000    286.04602    6455.9015     2924.207    29.378208 0.0038917376  0.015626615 -0.017440109 
  748000    287.80024    10701.983     2924.207    29.348043  0.016073872 -0.0051160921 0.0055440796 
  749000    272.55544     252.9047     2924.207    31.510544  0.027697295 -0.0033144593 -0.0047650049 
  750000    290.25852     17240.59     2924.207    30.645245 0.0045451983 -0.019784762 -0.0057561293 
  751000    288.47437    1999.1926     2924.207    28.711228   0.03717066  0.024298208 -0.033515178 
  752000    250.72011    446.96854     2924.207    27.347753 -0.029511421 -0.041811827 -0.023505518 
  753000    290.68388    12345.111     2924.207    27.560109  0.019826162 -0.012704084  0.019911377 
  754000    287.98661    3306.4357     2924.207    27.941696 -0.0053683168 -0.049499233  0.022879374 
  755000    287.10948    11219.059     2924.207    29.021841  0.011208981 -0.032510807 -0.0028694263 
  756000    281.33618    6501.8454     2924.207    29.650427 0.0059402066  0.041560875 -0.053292216 
  757000    283.21002    15777.658     2924.207     29.01805 0.0083958531 0.0047440613  0.005708979 
  758000    307.08784    3492.7375     2924.207    27.335576  0.025998608 0.0090355292 -0.013216778 
  759000    281.55912    6443.0869     2924.207    24.040237  0.018162363 -0.010883409  0.012466384 
  760000    269.20603    9239.5073     2924.207    24.812021  0.019612647  0.027285864 0.0090368147 
  761000    273.62213    6690.7334     2924.207    27.050583 -0.063372272 -0.017886057 -0.0066567041 
  762000     275.1565    7433.6082     2924.207     28.62664  0.011449939 0.0040631081 -0.035898865 
  763000    285.57991    5121.0651     2924.207    29.113808 0.00032780271  0.021989235 -0.018986363 
  764000    288.03454    8005.5722     2924.207    30.575155  0.013335524 -0.002314691  0.014003978 
  765000    288.76853    7300.6673     2924.207    33.758091 0.0010456276   0.02752499  0.011045862 
  766000    298.03593   -535.17337     2924.207    35.930324  0.011099128 -0.014510989 -0.012917141 
  767000    291.93183    6095.3335     2924.207    34.920785 0.00047646462 -0.011056006 -0.021294039 
  768000    282.18289    14503.508     2924.207    32.308792  0.017098929  0.011810009 -0.026898425 
  769000    284.29422    2101.0132     2924.207     29.87469 -0.0091473851 -0.017615254 -0.026250476 
  770000    264.20865    2440.5952     2924.207    29.526249  0.014412765 -0.0045315213  0.010448298 
  771000    270.89479    16537.837     2924.207    31.179238  0.032345737 -0.027883941 -0.020268814 
  772000    287.74217    10056.403     2924.207    32.047904  0.039585813  0.018651048 -0.0023628579 
  773000     273.6757    11218.989     2924.207    30.394218   0.01802179   0.02453939 -0.00010715086 
  774000    288.91388    1684.8351     2924.207    26.421137  -0.01187147 -0.0058592407 -0.0097559636 
[...]
  838000    268.74576    9578.2258     2924.207    30.827655   0.01215081  0.015036269 -0.00051618196 
  839000    287.32415    3975.4007     2924.207    33.364997  0.047321356 0.0039289269 1.486343e-05 
  840000    286.50037    3802.1226     2924.207    32.871405 -0.0058800143   0.00617605  0.011905566 
  841000    274.68788    7067.0003     2924.207    29.253344 0.0043474616 -0.018383416 -0.016399825 
  842000    280.85892    3822.1126     2924.207    27.491394  0.010768966 -0.0099188253  0.010271203 
  843000     292.6837    16162.327     2924.207     28.24995  0.020565989 -0.015995543 -0.0064718609 
  844000    280.62097    7620.4865     2924.207    29.683568 0.0064158965 0.0046131421  0.017775973 
  845000    299.48539   -1472.0138     2924.207    29.591239 -0.0005288043 0.0048204411 0.0065826523 
  846000     276.4896    16571.583     2924.207    24.865594  0.019437592  0.014596814  0.024374116 
  847000    285.04381    16375.662     2924.207    19.686055 -0.028101406 0.0014489331 0.0086741635 
  848000     276.0339    8337.4792     2924.207    17.137268 -0.031324484  0.026536243 -0.0065053294 
  849000    281.33311    4388.6407     2924.207    18.142447 0.0034068207 -0.038630403 -0.059160137 
  850000    295.13059    10665.966     2924.207    24.436499 0.0042370558 -0.019080646  -0.03844924 
  851000    281.77643    10429.495     2924.207    30.802321 0.0051101109  0.036880324 -0.040662167 
  852000     279.2957     1750.805     2924.207    35.094881  0.050821495 -0.021853893 -0.018912627 
  853000    298.76128    10900.854     2924.207    33.023413   0.01642975 0.0031088424  0.013271039 
  854000    288.18544    12329.873     2924.207    25.905511  0.001186287  0.069887715 0.0060024564 
  855000    277.40152     6981.993     2924.207    19.917306  0.038990817  0.062379003  0.022831981 
  856000    284.07893    5508.8988     2924.207    16.543066 -0.022247161 0.0083238198 0.0079458295 
  857000    272.52491    7325.8687     2924.207    16.188065 -0.026979959 -0.039637542 -0.012546156 
  858000    259.69834    9648.0001     2924.207     19.29715  0.027388741 -0.024907548 -0.011752532 
  859000    274.91437    4437.0674     2924.207    23.257561  0.011234197   -0.0369385 -0.036025627 
  860000    281.14252    9120.8957     2924.207    24.491701 0.0037585007  0.017007316 0.0034909812 
  861000    299.13366    9872.1251     2924.207    22.730673  0.022176281 -0.011083574 -0.034349283 
  862000    293.03722    4877.2704     2924.207    23.689271 -0.0042536657 -0.031529008 -0.034192011 
  863000    282.58438    4334.4884     2924.207    26.356305  0.044198783 -0.0010822344   -0.0190134 
  864000    293.26883    10791.416     2924.207    27.215064  0.010380532  0.046680997 -0.0091511541 
  865000    258.58553    12627.602     2924.207    29.268109 -0.0047576405 0.0070588975  0.015313707 
  866000    298.74695    4614.7174     2924.207    31.802526 -0.0023877357 -0.038574897  0.032536937 
  867000    299.56152     3334.421     2924.207    33.216484 -0.022979338 -0.0089610618  -0.02705348 
  868000    266.54913     12463.65     2924.207      32.7879 -0.024575477 -0.0030316523 -0.030112608 
  869000     278.4031    1026.0423     2924.207    32.132179 -0.012268014  0.020969734 -0.0065015888 
  870000    273.09288    3886.1978     2924.207    29.832205 -0.025995013  0.018723169 -0.043569697 
  871000    286.07099    5852.3732     2924.207    28.633633 -0.018476954 -0.0036679589 -0.0025232958 
  872000    291.08564     7511.059     2924.207    28.254163  -0.02479662  0.019373506  0.006913875 
  873000    293.10222    12035.989     2924.207    28.993962  0.010626706 -0.0056871473 -0.069877441 
  874000    287.86625    3250.8724     2924.207     28.22209 -0.013028665  0.026597226 -0.012083202 
  875000    287.51737    3438.0137     2924.207    26.485637 -0.017540495 -0.0029658971 -0.010878734 
  876000    285.34135    12178.905     2924.207    25.192604 -0.009475091 -0.0024929089 -0.021201146 
  877000    283.47377    4826.0405     2924.207    26.188392 0.0092221452 -0.016286694  0.019082181 
  878000    272.36169    2868.0238     2924.207    29.645954  0.047377655 -0.038757446 -0.028749213 
  879000     282.9559    7444.8356     2924.207    32.985614 -0.021848725  0.048686256 -0.017660089 
  880000    273.43386    5131.3708     2924.207    35.416933 -0.062650357 -0.0096363528 -0.051837761 
  881000    279.12437    10454.723     2924.207    35.864591 0.0024882245 0.0094275648 -0.0099858031 
  882000    284.04509     8556.412     2924.207     34.03294 -0.017516307 0.00090589283  0.016159925 
  883000    294.01698   -133.11467     2924.207    31.468274 -0.029708831 -0.019739163 -0.0018142578 
  884000    263.76087    8870.8886     2924.207    30.914458 -0.0015536509  0.033760871 -0.017748307 
  885000    282.30626    4506.3815     2924.207    32.542659  0.035244165 -0.030479889 -0.0046701026 
  886000    296.00686    10534.342     2924.207     33.47268 -0.027329163 0.0085855833  0.013670776 
  887000    265.44988    14970.507     2924.207     33.01713 -0.037979564  -0.01461754  0.014904559 
  888000    293.95385    1456.0486     2924.207    32.524934 -0.021610618  -0.01152738 -0.0085568874 
  889000     291.7745    4222.5215     2924.207    32.809366 -0.0047236163 -0.0086791069 -0.023605019 
  890000    288.86891    9665.9678     2924.207    33.910792  0.031703359 -0.011382025  0.010636641 
  891000    303.63181    85.695076     2924.207    35.414371  0.013319284 -0.026583069 -0.0091282226 
  892000    294.92251    14824.938     2924.207    35.711095  0.019889336  -0.00389538 0.0038670098 
  893000    293.96372    10965.431     2924.207    33.664053 0.0032792139  0.025346212  0.011993058 
  894000    276.87781    -3911.402     2924.207    31.669068 -0.022437733 -0.0046640255 -0.020089078 
  895000    289.35011    14627.118     2924.207    30.667475 0.0046000174 0.0091467061  0.012104935 
  896000    287.24696    12872.671     2924.207    30.472116  0.027293461 -0.0075153925  -0.01546841 
  897000     293.3761   -2011.5067     2924.207    30.674681 0.00065706645 -0.052950159  0.013935163 
  898000    289.47672    12103.963     2924.207     29.11966 0.0063573665 0.0068581652 -0.041860088 
  899000    290.70226    9802.0896     2924.207    27.506562 -0.0015278253 -0.0031218403 -0.0039818614 
  900000    269.20881    7325.8792     2924.207    28.645336 -0.027556391 -0.008307398  0.016903602 
  901000     288.2569    4398.5219     2924.207    29.992733 -0.0067020299 -0.032262385 -0.0030439708 
  902000    286.15651    14261.792     2924.207    28.923398 0.0034888567 -0.036647073  0.013931322 
  903000    275.96361    9969.8157     2924.207    27.949803  0.008688009  -0.03795603 -0.027116787 
  904000    282.98197    2527.4266     2924.207    26.959765 0.0068048445 -0.009638594 -0.0057122415 
  905000     287.5883    11546.822     2924.207    26.081304 -0.017138582  0.051023233 -0.024856822 
  906000    292.79443    10549.306     2924.207    27.287473 -0.0016768328 0.0055792951  0.017635569 
  907000    262.05162    2028.0546     2924.207    29.251909 -0.030943948 0.0087047755 -0.0032395081 
  908000    284.03477    11052.903     2924.207    30.839233 -0.042109919 -0.013464794 -0.017701131 
  909000     278.1227    8917.6178     2924.207    31.487085 -0.021317774 0.0042800509 -0.0083214186 
  910000    278.65084   -498.19133     2924.207    30.502714 -0.00084078106 -0.0062373608 -0.003174486 
  911000    298.48721    8304.7254     2924.207    26.682148 -0.0041989003 -0.0007470182 0.0073412428 
  912000    275.14432    2377.6054     2924.207    19.290562 -0.0040130829 -0.012645666 -0.021526134 
  913000    286.56191    13070.192     2924.207    14.172619 -0.010522993 -0.0097645024  0.008647096 
  914000    274.65509    10704.663     2924.207    13.847497 0.0071889672 -0.029156288 -0.0039493199 
  915000    285.69049     10842.41     2924.207    17.907586  0.020255618 -0.045230501 -0.0034003842 
  916000    263.09591    6671.9797     2924.207    22.707153 -0.0047300943 -0.038387746 -0.017190874 
  917000    295.41054    7745.7561     2924.207    26.715253 -0.016664664  0.024550949  0.049641966 
  918000    271.24642   -204.08512     2924.207    29.875797 -0.033370068 -0.010335055 0.0054735496 
  919000    278.68896    12747.784     2924.207    30.464066 0.0013564007  0.013546231 0.0025377518 
  920000    282.89325    9704.3081     2924.207    28.200117  0.027386617 -0.0042419807  0.013959963 
  921000    264.24022    2903.2198     2924.207    23.596368 0.00075630567  -0.02901793 -0.011439256 
  922000    271.74105    8309.0466     2924.207    21.892533 0.0094038259  0.022751868  -0.01747975 
  923000    289.94441    9552.6326     2924.207    25.096629 -0.038564533 0.0036771567 -0.0059142307 
  924000    285.23077    2167.2619     2924.207    29.763871  0.010722304  0.018907527  0.023234246 
  925000    285.82087    11520.472     2924.207    33.403113  0.024874317   0.04302645  0.026870001 
  926000    281.26706     4652.298     2924.207    34.561762  0.003957143 -0.0094661936 -0.011586969 
  927000    286.45652    2604.1472     2924.207    32.505096 0.0026957475 -0.013933882  0.050257563 
  928000    279.80798    16183.245     2924.207    28.848817  0.029050607 -0.0056995598  0.047679169 
  929000    271.47493     10037.18     2924.207    26.970008  0.058148968 -0.016075649 0.0095028721 
  930000    290.97107    1287.9491     2924.207    26.225957  0.014556639 -0.037251831 0.0016770086 
  931000    291.41966    6441.9881     2924.207    27.087033  0.016190192 -0.014455771  -0.01632759 
  932000     284.3497    19583.009     2924.207    27.581904 -0.018498799 -0.0013416793  0.032008643 
  933000    291.39435   -2902.1193     2924.207     28.11384 0.0032082749 -0.0045882101 -0.0079006315 
  934000     279.7365    7506.8134     2924.207    28.869656 -0.00016630302  0.030770828  0.011343603 
  935000     300.6004    8771.2356     2924.207    30.005552 0.00020471019  0.021834076  0.039275354 
  936000    292.68464    6646.5813     2924.207    30.412109 0.0080072756 -0.0012436078  0.027750779 
  937000    304.04639      9336.97     2924.207     31.12397 0.00027817592 -0.00029214513 -0.0045556731 
  938000    281.04492    11309.157     2924.207    32.315881  0.021561563 -0.011839944  0.016316594 
  939000    281.95275    5952.6429     2924.207    32.497573   0.01068254  0.013376751 0.0039384819 
  940000    293.25844    18194.334     2924.207    32.341478 -0.018086599  0.029005546 -0.0025508241 
  941000    282.00447    2263.9124     2924.207    33.943645 -0.0075669514 -0.035217946 -0.0060773416 
  942000    276.19291    4685.5253     2924.207    34.051389 -0.055595785 0.0045020624  0.010537174 
  943000    269.29966    6497.4322     2924.207    33.791217 -0.014390214  0.049303292 0.0017373838 
  944000     259.9591    10486.926     2924.207    32.720373  0.010664697  0.010751304 0.0029437929 
  945000    275.60454     4633.248     2924.207    33.198857 -0.0064080544  0.045018895 -0.029116013 
  946000    276.81377     7396.926     2924.207    32.935839  0.018361166  0.023756839 -0.0077876696 
  947000    276.04809    9162.4848     2924.207     33.24659 0.0077486669  0.015325595 -0.020307346 
  948000    270.76111    10167.903     2924.207    31.138009 -0.018380173  0.034272888 -0.026526512 
  949000    277.94072    1585.1093     2924.207    29.421427 -0.028068324 -0.045300778 0.0017649633 
  950000    265.62442    9851.2806     2924.207    29.457582 0.0090635556 -0.022559153 -0.016560392 
  951000    271.94193    8359.0534     2924.207    28.045554 -0.0035240387 0.0052085871   0.01616479 
  952000    299.13882    9108.6571     2924.207    26.962067 -0.0087014402 -0.0038004859 -0.012383857 
  953000    277.38867    9826.7193     2924.207    26.305727 0.0078565722  0.014383572  0.039966062 
  954000    278.69775    4682.0433     2924.207    27.815302 -0.018775077 -0.0062252912 -0.016109193 
  955000    284.40273    11061.953     2924.207    27.955826  0.015785601 0.0024327951 -0.0010227201 
  956000    277.47711    7178.1544     2924.207    26.230554  -0.04441813  0.014293394 0.0048143145 
  957000    295.19835    3323.5572     2924.207    25.830622 -0.041317097 -0.00057193155 -0.014564427 
  958000    277.19402    14882.922     2924.207     26.37673 0.0046511818 -0.019543948 -0.0034852001 
  959000    278.51303    3711.1036     2924.207    26.386538 3.9399639e-05 -0.027872811  0.029941163 
  960000    287.86953    1759.2194     2924.207    24.746402  0.007248237  0.010257322 -0.0096574222 
  961000     289.2561    25217.271     2924.207    23.452958  0.025104484 0.0076117888 -0.0046826338 
  962000    272.96793    3121.0583     2924.207    23.311944 -0.0041907396  0.033797786 -0.021395567 
  963000    282.78444   -8049.4337     2924.207    22.228041  -0.00120298  0.023066801  0.050346999 
  964000    258.91116    15720.344     2924.207    21.905315 -0.027023431 -0.0097411315  0.025403708 
  965000    289.34029     13066.97     2924.207    22.062157  -0.01403752  0.015208282 -0.0091626437 
  966000    269.38458    3518.5028     2924.207    23.274312  0.022601372 -0.033341368 -0.018492762 
  967000    275.34785   -430.18515     2924.207    25.148372  0.017205242 -0.012302636  0.010977792 
  968000     285.2839    12053.219     2924.207    27.574987  0.012002298 0.00013564061 -0.003871982 
  969000     256.7373    13548.246     2924.207    30.153229 0.0099570773  0.025306882 -0.0079923459 
  970000    299.01661    4568.1343     2924.207    30.535607  0.033298744  0.028920143 -0.0026237298 
  971000    271.82193    6247.4685     2924.207    28.001342 0.0058615994 -0.019636667 0.0021998867 
  972000    286.02392    7103.6192     2924.207    26.123675  0.019783121  0.021108446 -0.0019915451 
  973000    292.51302    4770.5162     2924.207    25.428287  0.018838472 0.00060244301 -0.0097448737 
  974000      296.768    10474.286     2924.207    25.063707 -0.013795395 -0.035181489  0.018713069 
  975000    294.42777   -2443.1086     2924.207    23.393622  0.015311238  0.027567465 0.0026320681 
  976000    280.33483    13925.708     2924.207    24.152609 -0.0042790462 -0.00097557929   0.01388471 
  977000    295.19459     12385.29     2924.207    25.053606 -0.0099984578 0.0078961187 0.0044789788 
  978000    279.18247    8386.3312     2924.207     24.66731 -0.014357862  0.018544948 0.0079621984 
  979000    284.15004    5696.3385     2924.207    23.817069 -0.010283184  0.010077186 -0.029735174 
  980000    281.95274    11070.091     2924.207    22.764352 -0.026228321  0.020831444 0.0041783649 
  981000    275.60627    4076.0325     2924.207    21.777229 -0.012384902  0.025509634  0.011363379 
  982000     287.0729    5739.0908     2924.207    21.537563 -0.035210064 -0.028847401 -0.020100501 
  983000    260.26609    8592.7229     2924.207    21.970934  0.011675549 -0.010615854 -0.021879758 
  984000    278.46142     13437.01     2924.207    23.030987 0.0025418616 -0.039972711 0.0056252373 
  985000     283.2261    7981.5168     2924.207    24.482335 -0.023584647  0.020432772  0.033235569 
  986000    281.34929     9499.236     2924.207     27.60913 0.0040787814  0.018045353 -0.018632192 
  987000    290.28362    14285.347     2924.207    29.757876 -0.0087669986 -0.012405848  0.015556414 
  988000    272.60911   -45.178102     2924.207    30.375139 0.0087687731 -0.017645382 -0.0037807797 
  989000    267.27596    5404.9379     2924.207    31.535622 -0.020412014 -0.040919139 -0.0036655707 
  990000    274.11919     10925.91     2924.207    32.741973  -0.02406141 3.9557782e-05 -0.011288895 
  991000    272.14021    4826.5477     2924.207    32.633336   0.01829213 -0.037172034  0.019283893 
  992000     268.2557    10062.973     2924.207    32.337706  0.015512907 0.00028357006  0.029392996 
  993000    274.47878    8682.1199     2924.207    32.738608  -0.05134196 -0.017761262  0.034036752 
  994000    282.43665     12114.08     2924.207    33.296336  0.020979116 -0.011979887 0.0026754008 
  995000    268.35225   -208.46905     2924.207    31.789747 -0.005446122 -0.034857228  0.041501316 
  996000    281.01599    11880.526     2924.207    29.886793  0.014368246 -0.014391073  0.013043638 
  997000    289.12998     16530.66     2924.207    29.193763  0.013788011 -0.0046014931  0.035331471 
  998000    288.67778    315.70548     2924.207    28.205551 -0.029430943 -0.050098839 -0.014026319 
  999000    299.79443    11167.485     2924.207    26.035402 -0.015390835 -0.0073500585  0.034885941 
 1000000    273.54424    14143.718     2924.207    24.592144 -0.0044267584 -0.015551774  0.022375779 
Loop time of 11443.5 on 2 procs for 1000000 steps with 240 atoms

Pair  time (%) = 9321.54 (81.4574)
Bond  time (%) = 0.420168 (0.00367169)
Neigh time (%) = 31.818 (0.278045)
Comm  time (%) = 1963.87 (17.1615)
Outpt time (%) = 0.65524 (0.00572589)
Other time (%) = 125.159 (1.09371)

Nlocal:    120 ave 124 max 116 min
Histogram: 1 0 0 0 0 0 0 0 0 1
Nghost:    5028 ave 5032 max 5024 min
Histogram: 1 0 0 0 0 0 0 0 0 1
Neighs:    45646 ave 47140 max 44152 min
Histogram: 1 0 0 0 0 0 0 0 0 1
FullNghs:  91292 ave 94308 max 88276 min
Histogram: 1 0 0 0 0 0 0 0 0 1

Total # of neighbors = 182584
Ave neighs/atom = 760.767
Ave special neighs/atom = 0
Neighbor list builds = 5335
Dangerous builds = 0
#	run			10000
	unfix			1
	uncompute		myKE
	uncompute		myPE
	uncompute		myStress
	uncompute		flux
	uncompute		myDis
	unfix			JJ

	next seed
	next iseed
jump lmp.in.gk loop_seed
variable iseed loop 10
variable seed index 11111 22222 33333 44444 55555 66666 77777 88888 99999 11110
clear
###########################################################################
#x0
###########################################################################
units 			metal
atom_style		full
read_data		fort.26.nonbonded
  0 = max bonds/atom
  0 = max angles/atom
  0 = max dihedrals/atom
  triclinic box = (0 0 0) to (14.3 14.3 14.3) with tilt (0 0 0)
  1 by 1 by 2 MPI processor grid
  240 atoms
  0 bonds
  0 angles
  0 dihedrals
  0 = max # of 1-2 neighbors
  0 = max # of 1-3 neighbors
  0 = max # of 1-4 neighbors
  1 = max # of special neighbors
group         		C type = 1
60 atoms in group C
###########################################################################
#OLPS
###########################################################################

################################################################################
#### Pair potentials
################################################################################
pair_style hybrid/overlay tersoff lj/cut 12.0
pair_coeff * * tersoff C.4.tersoff 1 2 3 4
pair_coeff 1 2 lj/cut 0.0007000000 3.5500000000
pair_coeff 1 3 lj/cut 0.0007000000 3.5500000000
pair_coeff 1 4 lj/cut 0.0007000000 3.5500000000
pair_coeff 2 3 lj/cut 0.0007000000 3.5500000000
pair_coeff 2 4 lj/cut 0.0007000000 3.5500000000
pair_coeff 3 4 lj/cut 0.0007000000 3.5500000000
special_bonds lj 0.0 0.0 0.0 coul 0.0 0.0 0.0

#pair_style tersoff
#pair_coeff * * C.4.tersoff 1 2 3 4

#pair_style lj/cut 12.0
#pair_coeff 1 1 0.0700000000 3.5500000000
#special_bonds lj 0.0 0.0 0.0 coul 0.0 0.0 0.0
###########################################################################

#--------------------------------------------------------------------------
#variables
#--------------------------------------------------------------------------
variable   	dt 		equal 0.001
#--------------------------------------------------------------------------
#kappa parameters
#--------------------------------------------------------------------------
variable    	p 		equal 100000 	# correlation length
variable    	s 		equal 10  	# sample interval
variable    	d 		equal $p*$s 	# dump interval
variable    	d 		equal 100000*$s 	
variable    	d 		equal 100000*10 	

#--------------------------------------------------------------------------
variable 	T_run 		equal 300
#--------------------------------------------------------------------------

log 	log_heat_${iseed}.lammps
log 	log_heat_10.lammps
