
#--------------------------------------------------------------------------
#nve rescale
#--------------------------------------------------------------------------
	velocity 		all create ${T_run} ${seed} rot yes dist gaussian
	velocity 		all create 300 ${seed} rot yes dist gaussian
	velocity 		all create 300 22222 rot yes dist gaussian

	fix 			1 all nve
	fix 			2 all temp/rescale 1 ${T_run} ${T_run} 0.01 1.0
	fix 			2 all temp/rescale 1 300 ${T_run} 0.01 1.0
	fix 			2 all temp/rescale 1 300 300 0.01 1.0
	timestep		${dt}
	timestep		0.0010000000000000000208
	thermo_style  		custom step temp press etotal vol
	thermo			1000
	run             	100000
Memory usage per processor = 4.35585 Mbytes
Step Temp Press TotEng Volume 
       0          300    177883.56   -1574.5439     2924.207 
    1000          300    5680.1583   -1593.9544     2924.207 
    2000          300     20322.45   -1597.7401     2924.207 
    3000          300    28573.676   -1597.5138     2924.207 
    4000          300    175.01418   -1597.2095     2924.207 
    5000          300   -12553.534   -1598.0187     2924.207 
    6000          300   -15127.446   -1596.2054     2924.207 
    7000          300   -10101.173    -1597.147     2924.207 
    8000          300    18446.994   -1597.6628     2924.207 
    9000          300    22607.722   -1597.2336     2924.207 
   10000          300     16254.78   -1597.8723     2924.207 
   11000          300   -7487.5779   -1597.1584     2924.207 
   12000    299.99355    -1516.629   -1597.9186     2924.207 
   13000          300    265.78339   -1598.1481     2924.207 
   14000          300    20468.921   -1597.4135     2924.207 
   15000          300    21997.195   -1597.0734     2924.207 
   16000          300   -208.28589    -1597.442     2924.207 
   17000          300   -541.04208   -1597.1948     2924.207 
   18000          300     1291.989   -1597.7221     2924.207 
   19000          300    11516.565   -1597.4298     2924.207 
   20000          300     12076.89   -1598.0603     2924.207 
   21000          300     5688.411   -1597.6851     2924.207 
   22000          300    1621.3074   -1597.5972     2924.207 
   23000          300    16035.777   -1597.7069     2924.207 
   24000          300    6726.7234   -1597.3165     2924.207 
   25000          300      3275.59   -1597.5452     2924.207 
   26000          300    4993.6922   -1597.3888     2924.207 
   27000          300     4708.518   -1597.5716     2924.207 
   28000          300    10478.636   -1597.7525     2924.207 
   29000          300    4019.3356   -1598.0526     2924.207 
   30000          300    14070.629   -1597.2529     2924.207 
   31000          300    10476.829   -1597.3396     2924.207 
   32000          300   -1969.7415   -1597.9819     2924.207 
   33000          300    12357.727   -1598.2995     2924.207 
   34000          300    6457.8913   -1597.7926     2924.207 
   35000          300    2890.6121   -1597.2174     2924.207 
   36000          300    7539.3312   -1596.8081     2924.207 
   37000          300    12180.068   -1598.3414     2924.207 
   38000          300    11377.329   -1597.7528     2924.207 
   39000          300    2595.8514   -1596.4058     2924.207 
   40000          300    14454.658   -1597.5778     2924.207 
   41000          300    14159.358   -1596.6857     2924.207 
   42000          300     606.3713   -1597.8454     2924.207 
   43000          300    7605.1781    -1598.045     2924.207 
   44000          300    20588.144   -1597.7171     2924.207 
   45000          300    405.98706     -1598.26     2924.207 
   46000          300    11090.779   -1597.2943     2924.207 
   47000          300    10984.877   -1597.4632     2924.207 
   48000          300    18976.933   -1598.1176     2924.207 
   49000          300    4290.0688   -1597.2214     2924.207 
   50000          300     24068.37   -1598.5946     2924.207 
   51000          300    3204.1853   -1597.3588     2924.207 
   52000          300    7125.2792   -1598.3382     2924.207 
   53000          300    17307.287   -1597.2646     2924.207 
   54000          300    4626.8349   -1598.6694     2924.207 
   55000          300    12153.011   -1597.0592     2924.207 
   56000          300    10158.823   -1598.6084     2924.207 
   57000          300    7545.2588   -1597.4954     2924.207 
   58000          300    18149.022   -1597.2879     2924.207 
   59000          300    14796.591   -1598.0523     2924.207 
   60000          300    8667.0148   -1596.7375     2924.207 
   61000          300    14726.404   -1598.7202     2924.207 
   62000          300    16286.349   -1596.9486     2924.207 
   63000          300    11961.209   -1598.4776     2924.207 
   64000          300     10821.29   -1598.4613     2924.207 
   65000          300    23001.465   -1597.5876     2924.207 
   66000          300    10621.231   -1597.6531     2924.207 
   67000          300    11475.391   -1598.1219     2924.207 
   68000          300    13744.862   -1598.6783     2924.207 
   69000          300    19149.634   -1597.6131     2924.207 
   70000          300    14700.823   -1597.4157     2924.207 
   71000          300    14174.676   -1597.9462     2924.207 
   72000          300    11611.593    -1599.688     2924.207 
   73000          300    7084.1668   -1598.2578     2924.207 
   74000          300    14124.865   -1598.7208     2924.207 
   75000          300    11154.394   -1599.4528     2924.207 
   76000          300    17019.885   -1598.4608     2924.207 
   77000          300    23001.746   -1597.7495     2924.207 
   78000          300    14616.198   -1597.6628     2924.207 
   79000          300    12840.605   -1599.3316     2924.207 
   80000          300    20818.542   -1598.7696     2924.207 
   81000          300    15606.859   -1599.4402     2924.207 
   82000          300      12687.8   -1599.0739     2924.207 
   83000          300    20420.193   -1599.0724     2924.207 
   84000          300    4172.0135   -1600.4437     2924.207 
   85000          300    10432.308   -1599.6823     2924.207 
   86000          300     17548.03   -1599.2023     2924.207 
   87000          300    14976.762   -1599.0938     2924.207 
   88000          300    10172.545   -1600.4701     2924.207 
   89000          300    15409.607   -1599.5305     2924.207 
   90000          300    9860.9306   -1600.2092     2924.207 
   91000          300    11563.547   -1601.1223     2924.207 
   92000          300    2815.7518   -1600.8631     2924.207 
   93000          300    15152.603   -1600.3329     2924.207 
   94000          300    12501.444   -1599.9792     2924.207 
   95000          300    19071.863    -1601.243     2924.207 
   96000          300    13033.928   -1600.5152     2924.207 
   97000          300    9377.2002    -1601.162     2924.207 
   98000          300    9249.6853   -1600.0929     2924.207 
   99000          300     10190.67   -1600.2947     2924.207 
  100000          300    8383.3721   -1600.7891     2924.207 
Loop time of 647.871 on 2 procs for 100000 steps with 240 atoms

Pair  time (%) = 621.748 (95.9678)
Bond  time (%) = 0.0243125 (0.00375267)
Neigh time (%) = 1.96517 (0.303326)
Comm  time (%) = 22.5027 (3.47333)
Outpt time (%) = 0.00288928 (0.000445964)
Other time (%) = 1.62829 (0.25133)

Nlocal:    120 ave 123 max 117 min
Histogram: 1 0 0 0 0 0 0 0 0 1
Nghost:    5044 ave 5057 max 5031 min
Histogram: 1 0 0 0 0 0 0 0 0 1
Neighs:    45606.5 ave 46691 max 44522 min
Histogram: 1 0 0 0 0 0 0 0 0 1
FullNghs:  91213 ave 93273 max 89153 min
Histogram: 1 0 0 0 0 0 0 0 0 1

Total # of neighbors = 182426
Ave neighs/atom = 760.108
Ave special neighs/atom = 0
Neighbor list builds = 459
Dangerous builds = 0
#	run             	1000
	unfix 			1
	unfix 			2
#--------------------------------------------------------------------------
#nve
#--------------------------------------------------------------------------
	fix 			1 all nve
	timestep		${dt}
	timestep		0.0010000000000000000208
	thermo_style  		custom step temp press etotal vol
	thermo			1000
	run             	100000
Memory usage per processor = 4.81552 Mbytes
Step Temp Press TotEng Volume 
  100000          300    8383.3721   -1600.7891     2924.207 
  101000    302.30203    13356.284   -1600.7857     2924.207 
  102000    291.74115    10438.278    -1600.788     2924.207 
  103000    301.77745    12868.894   -1600.7859     2924.207 
  104000     291.8405    16136.239   -1600.7891     2924.207 
  105000     299.8207    7891.3475   -1600.7862     2924.207 
  106000    288.37536    21013.247   -1600.7892     2924.207 
  107000    300.84172     7615.633   -1600.7907     2924.207 
  108000    313.53554    13688.335   -1600.7874     2924.207 
  109000    290.19674    7346.1972   -1600.7856     2924.207 
  110000    297.09771    24969.921   -1600.7884     2924.207 
  111000    299.68501    8564.8131    -1600.789     2924.207 
  112000    292.62288    14224.169   -1600.7879     2924.207 
  113000    284.39233    7986.0804   -1600.7847     2924.207 
  114000    304.54881    19474.487   -1600.7865     2924.207 
  115000    280.14717    12958.065   -1600.7894     2924.207 
  116000    300.05981    13048.285   -1600.7884     2924.207 
  117000    293.72202    14055.582   -1600.7899     2924.207 
  118000    295.94465    7754.0018    -1600.789     2924.207 
  119000    291.04022    17402.603   -1600.7847     2924.207 
  120000    322.59981    7709.5641   -1600.7901     2924.207 
  121000    277.24696    17306.057   -1600.7865     2924.207 
  122000    304.91576    13045.827   -1600.7867     2924.207 
  123000    286.11192    13314.221    -1600.788     2924.207 
  124000     298.6357    15437.705   -1600.7854     2924.207 
  125000    280.25317    12354.009   -1600.7946     2924.207 
  126000    316.82589    2897.8611   -1600.7938     2924.207 
  127000    283.96031    18182.589   -1600.7911     2924.207 
  128000    306.89635    10194.424   -1600.7865     2924.207 
  129000    286.84098    7648.1533   -1600.7888     2924.207 
  130000    285.80061    23685.286   -1600.7925     2924.207 
  131000    313.06474    6617.7346   -1600.7874     2924.207 
  132000    284.36749    16326.081    -1600.787     2924.207 
  133000     277.4526    15448.029   -1600.7909     2924.207 
  134000    301.85163    9529.3176   -1600.7879     2924.207 
  135000    277.72482    20973.673   -1600.7922     2924.207 
  136000     266.2582    22158.206   -1600.7916     2924.207 
  137000    280.68655    11708.285   -1600.7852     2924.207 
  138000    282.32885    18721.347   -1600.7903     2924.207 
  139000    301.65214    15164.957   -1600.7911     2924.207 
  140000    267.32009    18686.757   -1600.7914     2924.207 
  141000    269.05902    14338.721   -1600.7898     2924.207 
  142000    254.60811     20796.98   -1600.7887     2924.207 
  143000    266.05696    14250.923   -1600.7877     2924.207 
  144000    314.25087    8819.8593   -1600.7903     2924.207 
  145000    286.72673    20225.324   -1600.7905     2924.207 
  146000    289.16842    5763.2706   -1600.7913     2924.207 
  147000    271.53325    20502.445   -1600.7908     2924.207 
  148000    267.04815    18422.048   -1600.7929     2924.207 
  149000    320.92279    9913.8419   -1600.7921     2924.207 
  150000    312.60817    6183.6194    -1600.786     2924.207 
  151000    286.71167    19207.512   -1600.7874     2924.207 
  152000    286.58681    11135.091   -1600.7873     2924.207 
  153000    303.86089    11481.408   -1600.7878     2924.207 
  154000    301.63009     16462.19   -1600.7894     2924.207 
  155000    311.25538     6782.092   -1600.7842     2924.207 
  156000    280.45145    13858.474   -1600.7873     2924.207 
  157000    293.01758    12363.327   -1600.7904     2924.207 
  158000    290.46802    17278.253   -1600.7919     2924.207 
  159000    275.25281    12334.757   -1600.7832     2924.207 
  160000    292.82728    8845.4567   -1600.7843     2924.207 
  161000    302.21644    12837.997   -1600.7892     2924.207 
  162000    295.53757    14681.101   -1600.7895     2924.207 
  163000     299.8078    12987.203   -1600.7867     2924.207 
  164000    290.85505     11147.55   -1600.7879     2924.207 
  165000    295.87952     8146.151   -1600.7891     2924.207 
  166000    301.38623    8916.7072   -1600.7855     2924.207 
  167000    279.69168     15487.76   -1600.7918     2924.207 
  168000    309.60837    5512.9921   -1600.7867     2924.207 
  169000     285.5106    19635.742   -1600.7921     2924.207 
  170000    310.48278    5329.7925    -1600.796     2924.207 
  171000    274.13635    16595.881   -1600.7928     2924.207 
  172000    290.44678    9202.4695   -1600.7875     2924.207 
  173000    274.89353    18670.291   -1600.7931     2924.207 
  174000    308.69138     11066.57   -1600.7961     2924.207 
  175000    304.64485    12912.386   -1600.7897     2924.207 
  176000    296.38039    7735.3754   -1600.7921     2924.207 
  177000    285.43815    16227.742   -1600.7882     2924.207 
  178000    277.51105    10289.032   -1600.7858     2924.207 
  179000    287.39969      17901.9   -1600.7893     2924.207 
  180000     273.6027    11636.511   -1600.7856     2924.207 
  181000    308.02091     14051.05    -1600.797     2924.207 
  182000    263.59078    14277.741   -1600.7856     2924.207 
  183000    300.82064    14915.231   -1600.7922     2924.207 
  184000    271.39418    19276.592   -1600.7899     2924.207 
  185000    287.61061    12048.728   -1600.7906     2924.207 
  186000    304.40826    17613.246   -1600.7891     2924.207 
  187000    233.63032    19492.555   -1600.7875     2924.207 
  188000    291.46215    7097.1385    -1600.791     2924.207 
  189000    259.87552    16390.204   -1600.7854     2924.207 
  190000    286.62427    10275.268    -1600.791     2924.207 
  191000    294.44557    14480.602   -1600.7926     2924.207 
  192000    268.65589    21542.144   -1600.7895     2924.207 
  193000    261.14448     17931.37   -1600.7896     2924.207 
  194000     273.9197    12809.948    -1600.791     2924.207 
  195000    276.57249    16332.798     -1600.79     2924.207 
  196000    270.26864    15783.334   -1600.7913     2924.207 
  197000    289.09671    11395.371   -1600.7914     2924.207 
  198000    230.76769    20618.746   -1600.7878     2924.207 
  199000    272.31389    13272.376   -1600.7942     2924.207 
  200000    283.59863     15049.34   -1600.7974     2924.207 
Loop time of 661.39 on 2 procs for 100000 steps with 240 atoms

Pair  time (%) = 630.695 (95.3591)
Bond  time (%) = 0.0250274 (0.00378406)
Neigh time (%) = 4.06126 (0.614049)
Comm  time (%) = 25.2623 (3.81959)
Outpt time (%) = 0.00317824 (0.00048054)
Other time (%) = 1.34277 (0.203022)

Nlocal:    120 ave 124 max 116 min
Histogram: 1 0 0 0 0 0 0 0 0 1
Nghost:    5026.5 ave 5027 max 5026 min
Histogram: 1 0 0 0 0 0 0 0 0 1
Neighs:    45609 ave 47079 max 44139 min
Histogram: 1 0 0 0 0 0 0 0 0 1
FullNghs:  91218 ave 94048 max 88388 min
Histogram: 1 0 0 0 0 0 0 0 0 1

Total # of neighbors = 182436
Ave neighs/atom = 760.15
Ave special neighs/atom = 0
Neighbor list builds = 934
Dangerous builds = 0
#	run             	10000
	unfix 			1
#--------------------------------------------------------------------------
#kappa
#--------------------------------------------------------------------------
log 	log_kappa_${iseed}.lammps
log 	log_kappa_2.lammps
