
#--------------------------------------------------------------------------
#nve rescale
#--------------------------------------------------------------------------
	velocity 		all create ${T_run} ${seed} rot yes dist gaussian
	velocity 		all create 300 ${seed} rot yes dist gaussian
	velocity 		all create 300 99999 rot yes dist gaussian

	fix 			1 all nve
	fix 			2 all temp/rescale 1 ${T_run} ${T_run} 0.01 1.0
	fix 			2 all temp/rescale 1 300 ${T_run} 0.01 1.0
	fix 			2 all temp/rescale 1 300 300 0.01 1.0
	timestep		${dt}
	timestep		0.0010000000000000000208
	thermo_style  		custom step temp press etotal vol
	thermo			1000
	run             	100000
Memory usage per processor = 4.35585 Mbytes
Step Temp Press TotEng Volume 
       0          300    177883.56   -1574.5439     2924.207 
    1000          300    4539.5891   -1596.9617     2924.207 
    2000    299.99901    20289.541   -1597.2506     2924.207 
    3000          300    19803.496   -1597.1229     2924.207 
    4000          300    23992.892   -1598.0735     2924.207 
    5000          300   -11765.078   -1597.7145     2924.207 
    6000          300   -12754.448   -1597.6781     2924.207 
    7000          300   -11234.658   -1597.4964     2924.207 
    8000          300    14277.713   -1597.4436     2924.207 
    9000          300    23258.636   -1598.1115     2924.207 
   10000          300     15886.24   -1597.5256     2924.207 
   11000          300   -1404.2521   -1597.4263     2924.207 
   12000          300   -7280.5463   -1597.4781     2924.207 
   13000          300    8597.0667   -1597.1996     2924.207 
   14000          300    23361.527   -1597.3084     2924.207 
   15000          300    12939.003     -1596.73     2924.207 
   16000          300   -742.50492   -1597.2253     2924.207 
   17000          300   -5209.8442   -1596.9998     2924.207 
   18000          300    15541.014    -1597.599     2924.207 
   19000          300    14780.492   -1598.3068     2924.207 
   20000          300    860.42939   -1597.9343     2924.207 
   21000          300   -10350.575   -1597.6014     2924.207 
   22000          300     866.4395   -1597.9115     2924.207 
   23000          300     16584.39   -1597.8353     2924.207 
   24000          300    11337.451   -1597.1875     2924.207 
   25000          300    4081.2291   -1597.1406     2924.207 
   26000          300    13159.191   -1598.0727     2924.207 
   27000          300     4832.925   -1598.1128     2924.207 
   28000          300    -1783.511   -1597.6512     2924.207 
   29000          300    13664.124   -1597.2637     2924.207 
   30000          300    8043.6022   -1597.1349     2924.207 
   31000          300    10117.963   -1597.0769     2924.207 
   32000          300    1822.1305   -1596.8537     2924.207 
   33000          300    9132.4966   -1598.1689     2924.207 
   34000          300     17745.31   -1598.0974     2924.207 
   35000          300    8569.7558    -1598.096     2924.207 
   36000          300    1846.5904   -1597.5059     2924.207 
   37000          300   -4995.3894   -1597.5956     2924.207 
   38000          300    11549.918   -1598.7173     2924.207 
   39000          300    18641.453   -1597.5817     2924.207 
   40000          300     2493.077   -1597.7943     2924.207 
   41000          300    -1386.399   -1597.2696     2924.207 
   42000          300    14943.846   -1598.3318     2924.207 
   43000          300   -5612.5106   -1597.8552     2924.207 
   44000          300    7365.4623   -1597.8256     2924.207 
   45000          300    19640.718   -1597.0414     2924.207 
   46000          300    4296.7936   -1597.1488     2924.207 
   47000          300     5464.598   -1597.5583     2924.207 
   48000          300    12194.768   -1598.7972     2924.207 
   49000          300    13969.812   -1598.2081     2924.207 
   50000          300    9587.0825    -1597.317     2924.207 
   51000          300    7277.7122   -1598.1133     2924.207 
   52000          300    12432.616   -1597.5603     2924.207 
   53000          300    14153.202   -1597.8542     2924.207 
   54000          300    6177.9605   -1597.3726     2924.207 
   55000          300    19327.513   -1597.4024     2924.207 
   56000          300    14848.798   -1597.4502     2924.207 
   57000          300    10472.429   -1597.4451     2924.207 
   58000          300    12931.618   -1598.3453     2924.207 
   59000          300     1745.575   -1598.6541     2924.207 
   60000          300    12382.085   -1598.1209     2924.207 
   61000          300    20236.649   -1596.8594     2924.207 
   62000          300    9392.9278   -1597.9072     2924.207 
   63000          300    17590.062   -1598.5574     2924.207 
   64000          300    10684.489   -1597.7861     2924.207 
   65000          300   -154.13242   -1597.3393     2924.207 
   66000          300    18832.384   -1598.6724     2924.207 
   67000          300    9324.2284   -1598.5325     2924.207 
   68000          300     14033.61    -1597.836     2924.207 
   69000          300    9401.9946   -1597.9408     2924.207 
   70000          300    8282.7887   -1597.6981     2924.207 
   71000          300    10122.626   -1598.9071     2924.207 
   72000          300     11315.27   -1598.6994     2924.207 
   73000          300    16939.436   -1597.6892     2924.207 
   74000          300    14666.896   -1599.3453     2924.207 
   75000          300    7725.9039   -1598.6927     2924.207 
   76000          300    23378.223   -1597.9426     2924.207 
   77000          300    13514.575   -1599.6183     2924.207 
   78000          300    8314.7443   -1598.7803     2924.207 
   79000          300    20561.736   -1598.4203     2924.207 
   80000          300    7667.1957   -1598.5134     2924.207 
   81000          300    14642.159   -1599.2047     2924.207 
   82000          300    12800.792   -1598.0431     2924.207 
   83000          300    9257.1984   -1600.0861     2924.207 
   84000          300    16313.717   -1598.9688     2924.207 
   85000          300    12783.696   -1599.2191     2924.207 
   86000          300     14863.81   -1600.3903     2924.207 
   87000          300    19424.622   -1598.4966     2924.207 
   88000          300    16305.394    -1599.318     2924.207 
   89000          300    22379.786   -1599.1857     2924.207 
   90000          300    8646.9542    -1600.367     2924.207 
   91000          300    16242.019   -1598.2011     2924.207 
   92000          300    19338.618    -1599.174     2924.207 
   93000          300    20836.271   -1598.9811     2924.207 
   94000          300    17587.876   -1599.2441     2924.207 
   95000          300    10471.921   -1600.1473     2924.207 
   96000          300    19858.074   -1600.2523     2924.207 
   97000          300    18215.567   -1598.4144     2924.207 
   98000          300    29446.064   -1598.8482     2924.207 
   99000          300      9977.15   -1600.2113     2924.207 
  100000          300    18799.857   -1598.9276     2924.207 
Loop time of 1091.99 on 2 procs for 100000 steps with 240 atoms

Pair  time (%) = 889.756 (81.4801)
Bond  time (%) = 0.0405289 (0.00371147)
Neigh time (%) = 2.5613 (0.234553)
Comm  time (%) = 197.209 (18.0596)
Outpt time (%) = 0.0040139 (0.000367576)
Other time (%) = 2.42076 (0.221683)

Nlocal:    120 ave 123 max 117 min
Histogram: 1 0 0 0 0 0 0 0 0 1
Nghost:    4997.5 ave 5039 max 4956 min
Histogram: 1 0 0 0 0 0 0 0 0 1
Neighs:    45603.5 ave 46497 max 44710 min
Histogram: 1 0 0 0 0 0 0 0 0 1
FullNghs:  91207 ave 93145 max 89269 min
Histogram: 1 0 0 0 0 0 0 0 0 1

Total # of neighbors = 182414
Ave neighs/atom = 760.058
Ave special neighs/atom = 0
Neighbor list builds = 446
Dangerous builds = 0
#	run             	1000
	unfix 			1
	unfix 			2
#--------------------------------------------------------------------------
#nve
#--------------------------------------------------------------------------
	fix 			1 all nve
	timestep		${dt}
	timestep		0.0010000000000000000208
	thermo_style  		custom step temp press etotal vol
	thermo			1000
	run             	100000
Memory usage per processor = 4.81552 Mbytes
Step Temp Press TotEng Volume 
  100000          300    18799.857   -1598.9276     2924.207 
  101000    324.14702    13185.403   -1598.9316     2924.207 
  102000    329.26402    14624.434   -1598.9239     2924.207 
  103000    304.64167    10920.375   -1598.9205     2924.207 
  104000    319.67255    15301.557   -1598.9271     2924.207 
  105000    323.19869    10709.527    -1598.925     2924.207 
  106000    328.58056    21000.526   -1598.9254     2924.207 
  107000    300.69915    14646.712   -1598.9215     2924.207 
  108000    326.62038    9885.9008   -1598.9187     2924.207 
  109000    322.15887    18353.876   -1598.9233     2924.207 
  110000    315.43409    10464.554   -1598.9331     2924.207 
  111000    334.85487    12723.632   -1598.9244     2924.207 
  112000    311.57969    20060.001   -1598.9193     2924.207 
  113000    330.28046     8820.502   -1598.9259     2924.207 
  114000    325.40654    10528.185    -1598.929     2924.207 
  115000    301.42192    8535.7261   -1598.9302     2924.207 
  116000    319.99498    18919.499   -1598.9257     2924.207 
  117000    313.43711     15394.46   -1598.9303     2924.207 
  118000    299.13566    17973.069   -1598.9305     2924.207 
  119000    323.20347     19325.97   -1598.9342     2924.207 
  120000    303.62613     16838.93    -1598.925     2924.207 
  121000     305.8413    14855.713    -1598.928     2924.207 
  122000    309.92043    16095.307   -1598.9281     2924.207 
  123000    287.24343    18417.968   -1598.9311     2924.207 
  124000    316.23005     16313.68   -1598.9334     2924.207 
  125000    269.07634    18000.793   -1598.9287     2924.207 
  126000     286.4565      26761.4   -1598.9285     2924.207 
  127000    323.57554     3461.948   -1598.9245     2924.207 
  128000    300.54142    18314.406   -1598.9268     2924.207 
  129000    277.48112    26059.382   -1598.9248     2924.207 
  130000    299.93696     21099.25   -1598.9263     2924.207 
  131000    295.24562    8517.6817   -1598.9206     2924.207 
  132000    298.91209    22304.002   -1598.9274     2924.207 
  133000    308.98302    9373.4935   -1598.9275     2924.207 
  134000    295.02545    22145.193   -1598.9295     2924.207 
  135000    342.26759    5684.1232    -1598.927     2924.207 
  136000    279.50233    23512.637   -1598.9229     2924.207 
  137000    298.77149    15700.463   -1598.9278     2924.207 
  138000    324.93394    9877.3429   -1598.9236     2924.207 
  139000    269.52076    20746.757   -1598.9317     2924.207 
  140000     299.6259    19306.987   -1598.9296     2924.207 
  141000    289.83398    13817.659   -1598.9274     2924.207 
  142000    312.92166    19695.469   -1598.9302     2924.207 
  143000    332.55344    6204.9095   -1598.9291     2924.207 
  144000    308.94787    16141.959   -1598.9271     2924.207 
  145000    327.07037    10619.983   -1598.9326     2924.207 
  146000    305.84175    17478.262    -1598.929     2924.207 
  147000    332.99017    15676.675    -1598.931     2924.207 
  148000    310.70404    15775.411   -1598.9385     2924.207 
  149000    336.12629     13991.19   -1598.9301     2924.207 
  150000    311.96721    19460.034     -1598.93     2924.207 
  151000    337.75904    7850.7418   -1598.9389     2924.207 
  152000    307.97926    14992.407    -1598.929     2924.207 
  153000    317.07908    15068.309   -1598.9312     2924.207 
  154000    334.51119     8474.535   -1598.9358     2924.207 
  155000    306.28086    20262.855    -1598.929     2924.207 
  156000    326.20115    11000.961   -1598.9306     2924.207 
  157000    314.39438    23285.912   -1598.9292     2924.207 
  158000    337.02546    8511.3298   -1598.9327     2924.207 
  159000    309.03095    12310.196   -1598.9297     2924.207 
  160000    302.58281     19512.95   -1598.9261     2924.207 
  161000    304.74714    15075.918   -1598.9326     2924.207 
  162000    270.91666    19929.226   -1598.9315     2924.207 
  163000    284.35023    13034.372    -1598.933     2924.207 
  164000    292.88445    20174.756   -1598.9259     2924.207 
  165000    300.26154    20953.197   -1598.9275     2924.207 
  166000    303.48582    14453.966   -1598.9278     2924.207 
  167000    328.73215    17535.685   -1598.9322     2924.207 
  168000    293.81075    15568.888   -1598.9265     2924.207 
  169000    307.45525    18264.089   -1598.9288     2924.207 
  170000    348.72947    13571.652   -1598.9312     2924.207 
  171000    307.68177    11622.242   -1598.9253     2924.207 
  172000    281.24804    16145.193   -1598.9248     2924.207 
  173000    332.32885     14208.41   -1598.9325     2924.207 
  174000    331.20567    14142.427   -1598.9299     2924.207 
  175000    315.78809    13881.418   -1598.9323     2924.207 
  176000    304.56543    11025.564   -1598.9284     2924.207 
  177000    328.18986    18726.318   -1598.9298     2924.207 
  178000     321.0857    9275.9531   -1598.9269     2924.207 
  179000    289.61408    17530.597   -1598.9289     2924.207 
  180000    338.92345     13796.68   -1598.9312     2924.207 
  181000     317.6067    12007.048   -1598.9298     2924.207 
  182000    319.13527    9665.2754   -1598.9323     2924.207 
  183000    318.01915    12776.779   -1598.9213     2924.207 
  184000    284.22115    17732.229    -1598.933     2924.207 
  185000    319.88378    13078.746    -1598.931     2924.207 
  186000    324.15858    10999.491   -1598.9303     2924.207 
  187000    321.59398     10511.67   -1598.9188     2924.207 
  188000    298.68563    16803.948   -1598.9321     2924.207 
  189000    330.40569    9337.9139   -1598.9277     2924.207 
  190000    304.48758    17813.599   -1598.9314     2924.207 
  191000    318.35276    17948.218   -1598.9404     2924.207 
  192000    323.94422     15593.95   -1598.9328     2924.207 
  193000    278.19252    15295.488   -1598.9337     2924.207 
  194000    291.71723    16729.603   -1598.9316     2924.207 
  195000    310.90383    13924.615   -1598.9277     2924.207 
  196000    327.00412    9746.3085   -1598.9341     2924.207 
  197000    308.52826    16433.234   -1598.9343     2924.207 
  198000    302.74455    20298.657   -1598.9317     2924.207 
  199000     319.2735    4437.0336   -1598.9324     2924.207 
  200000    311.40003    9281.5461   -1598.9264     2924.207 
Loop time of 1119.47 on 2 procs for 100000 steps with 240 atoms

Pair  time (%) = 924.405 (82.575)
Bond  time (%) = 0.0394584 (0.00352473)
Neigh time (%) = 5.29185 (0.472709)
Comm  time (%) = 187.698 (16.7666)
Outpt time (%) = 0.00428271 (0.000382565)
Other time (%) = 2.03486 (0.181769)

Nlocal:    120 ave 122 max 118 min
Histogram: 1 0 0 0 0 0 0 0 0 1
Nghost:    5079 ave 5086 max 5072 min
Histogram: 1 0 0 0 0 0 0 0 0 1
Neighs:    45580.5 ave 46268 max 44893 min
Histogram: 1 0 0 0 0 0 0 0 0 1
FullNghs:  91161 ave 92517 max 89805 min
Histogram: 1 0 0 0 0 0 0 0 0 1

Total # of neighbors = 182322
Ave neighs/atom = 759.675
Ave special neighs/atom = 0
Neighbor list builds = 882
Dangerous builds = 0
#	run             	10000
	unfix 			1
#--------------------------------------------------------------------------
#kappa
#--------------------------------------------------------------------------
log 	log_kappa_${iseed}.lammps
log 	log_kappa_9.lammps
