	reset_timestep  	0
	fix 			1 all nve
	compute   		myKE all ke/atom
	compute   		myPE all pe/atom
	compute   		myStress all stress/atom virial
	compute   		flux all heat/flux myKE myPE myStress
	variable  		Jx equal c_flux[1]/vol
	variable  		Jy equal c_flux[2]/vol
	variable  		Jz equal c_flux[3]/vol
	fix       		JJ all ave/correlate $s $p $d c_flux[1] c_flux[2] c_flux[3] type auto file J0Jt_${iseed}.dat ave running
	fix       		JJ all ave/correlate 10 $p $d c_flux[1] c_flux[2] c_flux[3] type auto file J0Jt_${iseed}.dat ave running
	fix       		JJ all ave/correlate 10 100000 $d c_flux[1] c_flux[2] c_flux[3] type auto file J0Jt_${iseed}.dat ave running
	fix       		JJ all ave/correlate 10 100000 1000000 c_flux[1] c_flux[2] c_flux[3] type auto file J0Jt_${iseed}.dat ave running
	fix       		JJ all ave/correlate 10 100000 1000000 c_flux[1] c_flux[2] c_flux[3] type auto file J0Jt_10.dat ave running
	compute 		myDis all msd
	thermo_style 		custom step temp press vol c_myDis[4] v_Jx v_Jy v_Jz
	thermo			1000
	timestep		${dt}
	timestep		0.0010000000000000000208
	run			1000000
Memory usage per processor = 7.59433 Mbytes
Step Temp Press Volume myDis[4] Jx Jy Jz 
       0     290.2536    10228.768     2924.207 2.2708202e-30  0.022196571 0.00093022474  0.036946558 
    1000    273.67167    18552.463     2924.207     5.958875  0.029926927 -0.031710819 -0.0010265702 
    2000    286.33629    16653.103     2924.207    15.709306 -0.013693853 -0.020181861  0.042277802 
    3000     260.3763    13432.201     2924.207    23.272155  0.026985581  0.031568079 -0.038373588 
    4000    306.30411    10319.962     2924.207    29.844268 -0.016514514 -0.0096442498 -0.010150494 
    5000    250.09012     17648.45     2924.207    34.810642 -0.0063358513 0.0024293376 0.0084499527 
    6000    285.13515    15057.053     2924.207    35.937566 -0.069191219  -0.02954174 0.0031433984 
    7000    283.86763    15345.022     2924.207     33.57577  0.016102691   0.01821542  0.019360345 
    8000    257.73103    16783.931     2924.207    29.959409 -0.021030314 -0.0069732965 -0.029580806 
    9000    309.81473    13486.583     2924.207    28.420282 -0.0075210944 -0.0032048342  0.026237454 
   10000    260.48001     12707.64     2924.207    29.713576 -0.030825202  0.021041234  0.021220172 
   11000    293.25496    19854.629     2924.207    26.517414 0.0021230656 -0.015712018 0.0054511348 
   12000    257.13396    16534.902     2924.207     20.37653  0.028835833 -0.059166033 -0.010265426 
   13000    294.81232    15111.221     2924.207    18.172382 -0.017327601 -0.002390475  0.028532504 
   14000    254.55903    17912.304     2924.207    20.871466 -0.0013711948 -0.0013543762 -0.0073920286 
   15000    274.77751    9988.5229     2924.207    25.277798 0.0044661799  0.027589094 0.0052665748 
   16000    260.35328    19932.353     2924.207    27.311353 0.0040520194  0.013251091  0.010601157 
   17000    281.44778    11942.915     2924.207    25.491084 -0.015559474 -0.0057688938  0.020579811 
   18000    251.41516    23954.641     2924.207     23.46689 -0.0096887334  0.028507979   0.03304982 
   19000    268.72001    9874.6078     2924.207    23.136715 -0.028850771 0.00051138369  0.013742472 
   20000    283.94486    11832.104     2924.207    26.671115 -0.014619294 0.0033650538  0.034848983 
   21000    284.13276    17827.301     2924.207    29.369222 -0.023902598 -0.040259646 -0.047284647 
   22000    279.01503    17262.575     2924.207    26.566916 -0.0015051436 0.0085561918 0.0051460621 
   23000    285.61162    11558.205     2924.207    20.253564  -0.02295411 -0.0070997604  0.008550221 
   24000    282.12857    14272.526     2924.207    20.191589  0.023485065 -0.0078783895   0.00891813 
   25000    278.97076    8173.2044     2924.207    22.785481 -0.0080040111 0.0012617033 -0.013967863 
   26000    283.39277    18420.982     2924.207    26.430727 -0.039944968  0.023518052 -0.0044475563 
   27000    271.16041    18414.317     2924.207    31.404908  0.043569846 -0.0056141568 -0.017860244 
   28000    295.95491    6685.0457     2924.207    30.942534  0.015149386 -0.0028116749 -0.013651902 
   29000    302.28988    11890.136     2924.207    26.990187  0.021189801 0.0074339725  0.031171965 
   30000    262.34185    19633.149     2924.207    26.210086 -0.0020452364 -0.023034548 -0.037173241 
   31000    284.77031    12069.914     2924.207    26.067772  0.060729112 0.0095349147  0.014637465 
   32000    287.75762    6968.4953     2924.207    29.655872  0.013084212 -0.017981015  0.017850573 
   33000    295.05073    19263.959     2924.207    33.772352 0.0030352132 0.00023766833  0.034023077 
   34000    304.47253    14232.274     2924.207    34.905948 -0.025878173 -0.029273283  0.015731373 
   35000      256.285    15536.802     2924.207     29.95916  0.050514158  -0.01531519 -0.00076567269 
   36000    295.22358     16056.41     2924.207    23.121846 -0.019553819 -0.055542852  0.041129397 
   37000    264.98788    20456.299     2924.207    21.389764  0.036998606 -0.004909847 0.00042401292 
   38000     298.5082    14027.571     2924.207    27.881926 0.0012207343  0.011544278 -0.0032726941 
   39000    287.00492     5151.963     2924.207    32.898729 -0.012185951 0.00011422057 -0.0080013853 
   40000    283.90124    15829.574     2924.207    32.015714 -0.018217315 -0.029084418 0.0015505396 
   41000    310.23397    10643.527     2924.207    29.073069  0.005344398   0.02002896 -0.0036601978 
   42000    267.30903    9954.4698     2924.207    28.055503 0.0018193281 -0.019498149 0.0082914866 
   43000    307.13215    10084.363     2924.207    28.030919   0.04561856 0.0072197023 -0.0069153532 
   44000      268.882    13061.765     2924.207    30.047072 -0.015858154 0.0076051298 -0.0023676366 
   45000    269.45869    19694.854     2924.207    30.962149  0.027850793  0.050150255 0.0023028089 
   46000    296.96647    10449.657     2924.207    31.272164  0.017723655  0.014465732 -0.028571206 
   47000    292.56477    14806.969     2924.207    31.422277  0.025955193 -0.019702646  0.019638814 
   48000    284.76113    8027.9121     2924.207    31.204863 -0.0079218831 0.0021230395 -0.035236482 
   49000    294.82689    9843.2231     2924.207    30.433532 -0.029097415 0.00082296398 -0.014501778 
   50000    302.09947    19442.825     2924.207    32.073762  0.012751631 0.0034081605   0.03207202 
   51000    278.00308    8544.1476     2924.207     31.39596 -0.034209881  0.037194385 -0.014540903 
   52000    280.08889    13447.759     2924.207    28.981297  0.011738769  0.034123197 -0.0063314934 
   53000    275.17809    20586.308     2924.207     23.58331  0.038193478 -0.0048098114 -0.0050922373 
   54000    270.43683    10816.178     2924.207     20.54911  0.022400045 0.0075716839  0.038345834 
   55000    303.00301    11406.877     2924.207    22.786675 -0.024318349  -0.03712178 -0.022726884 
   56000     265.9175    17248.893     2924.207    26.354879  0.022636071 -0.042119124 0.0019784044 
   57000    252.96353    14330.153     2924.207    25.262047 -0.015867371  0.010903364  0.012347808 
   58000    290.85385    14825.376     2924.207    24.470519 -0.0043254707 -0.0069284623  0.025356276 
   59000    272.50408     14112.02     2924.207    25.522233  0.017769386  0.026839043  -0.02042334 
   60000     268.3849    8570.6887     2924.207    28.414551  0.020844738  0.026509556  0.017222711 
   61000    246.88291    22298.399     2924.207    30.092645 -0.018592426 -0.019020413  0.002938526 
   62000    285.21078     12609.63     2924.207    28.543708 -0.0080311962 -0.0097270366 0.0010244024 
   63000    256.22505    14059.922     2924.207    24.326909 0.0020189144  0.018132647  0.010016085 
   64000    275.00204    10806.439     2924.207     20.43445 -0.017887185 -0.019802276 -0.0026138087 
   65000    285.79124    25555.002     2924.207    18.474182  0.006095208 -0.0039756563 -0.019220094 
   66000    272.80103    6565.3548     2924.207    17.863636 0.0030306101 -0.019816976 -0.030745701 
   67000     261.0133    20188.768     2924.207    21.622949 -0.0017994044 -0.029887298  0.013115635 
   68000    243.99615    17701.846     2924.207    25.832804  0.014887805  0.011982757 -0.046342079 
   69000    286.21598    10001.742     2924.207     29.61068 0.0035575812 -0.013435704 -0.022544086 
   70000     277.5637    19839.979     2924.207    27.506678 -0.028195927 -0.032628067 0.0044225567 
   71000    254.48886    20589.007     2924.207    26.460659 -0.011985364 -0.0015281668 -0.023217058 
   72000    265.10765    13917.405     2924.207    28.129565  0.021587555 -2.9570528e-05 -0.031949978 
   73000    238.98101     14331.54     2924.207     26.68986 -0.0098405692  0.013357744 -0.034646223 
   74000    244.45621    11705.706     2924.207    26.320626  0.017066758  0.030737887  -0.03204913 
   75000    285.31857    15658.658     2924.207    24.863224  -0.00541923 -0.011379706 -0.0098732705 
   76000    275.04014    11175.435     2924.207    27.002392  0.011456809 -0.046741329  0.017202628 
   77000    295.25394    12878.852     2924.207    25.860808  0.019139618 -0.0046082423 -0.0066274846 
   78000    285.48836    13629.035     2924.207    26.002581 -0.036226464 -0.0043031743 -0.034422525 
   79000    291.66676    10621.128     2924.207    31.161977  0.018077702 -0.004807756  0.021755248 
   80000    278.66549     9994.858     2924.207    33.937965 -0.018616815 -0.010780497 -0.017634179 
   81000    249.16859    10524.205     2924.207     32.96133  -0.02316936 0.00039271875 -0.051120538 
   82000    297.73949    19000.521     2924.207    29.666963  0.007829747 -0.016597129  0.020273528 
   83000    255.87693    11368.858     2924.207    30.259175 0.0080672648 -0.015990965 -0.0044958668 
   84000    285.90635    12759.212     2924.207    30.986831  0.011257422  0.041153384   0.01753215 
   85000    265.94354    15680.156     2924.207    31.653265  0.015982063 -0.017706685 -0.032897882 
   86000    264.82242    16844.943     2924.207    32.301525 0.0099184628 -0.0058953019  0.014698655 
   87000    281.81054    5889.8527     2924.207     28.46841 -0.0076929503 -0.010154793  0.023752443 
   88000    264.77198    11476.881     2924.207    22.493315  0.012795888 -0.003846225 0.0061134778 
   89000    259.73563    19399.574     2924.207    17.343654   0.02242894 -0.021728279 -0.034697013 
   90000    283.48367    8794.0084     2924.207    16.267733 -0.007044613 0.0058777663 -0.010926832 
   91000    251.61463    24190.322     2924.207    18.270121 -0.036906554 -0.041237329  0.028247756 
   92000    279.92468    11314.934     2924.207    22.752261 0.0098859003 -0.010053609 -0.017379759 
   93000    300.53544    13056.458     2924.207    26.420256 -0.015061064 -0.022610836  0.018686137 
   94000    270.75103    13076.988     2924.207    28.038784  0.018744975 -0.019032549  0.040139766 
   95000    262.36938      25220.9     2924.207    28.917359 -0.014821499 0.0021493418  0.028274351 
   96000    290.32885    2196.8111     2924.207    28.581021  0.030235301  0.012630732 0.0016969298 
   97000    295.21041    12257.958     2924.207    27.094817  0.017158866 0.0057218491 0.00077744028 
   98000    266.21315    14514.274     2924.207     26.02276 0.0031993446 -0.032568887 -0.043926895 
   99000    264.63009    16546.227     2924.207    24.461337  0.024560973 -0.0080820681 -0.0070442081 
  100000    289.74065     7768.755     2924.207    23.594777 -0.032618274 -0.021898471  0.043801293 
  101000    293.30169     1772.879     2924.207     23.66475 -0.040918372 -0.022663446  0.012680338 
  102000    281.63899    19879.679     2924.207    27.878657 -0.0030567314 0.0071944578  0.036576685 
  103000    277.16944    14192.659     2924.207    30.049265 -0.0087292499 -0.015458364  0.040085911 
  104000    282.91631     12963.57     2924.207    28.769998  0.019957426 0.0067755178 -0.017894023 
  105000    273.41253    16215.583     2924.207    26.612622 -0.027402044 -0.007836602  0.034282083 
  106000    262.04522     13431.62     2924.207    30.606055  0.008904903  0.015050164 0.00039514005 
  107000    279.36738    14088.295     2924.207    32.254758 -0.025532086  0.008819246  0.021791857 
  108000    257.35755    18506.303     2924.207    33.781299   0.01751884  0.022533378 0.0014080005 
  109000    298.71916    11900.804     2924.207     32.93349  0.039766783  0.012965169 -0.020231343 
  110000    272.42443    5257.4168     2924.207     32.21745  0.022101217  0.030315011  0.032001604 
  111000    267.38948    17527.774     2924.207    32.838571 0.0072830524  -0.03641478  0.024325741 
  112000    298.19737    7716.9301     2924.207     32.77672 -0.0060312343  0.022953813 -0.027975519 
  113000    238.31846    22704.487     2924.207    30.842215  0.034087236 -0.0079097014 -0.019878225 
  114000    285.74379    8903.2517     2924.207    28.481753 0.0056582209  0.010178385 -0.024457669 
  115000    277.83167    14706.223     2924.207    27.048076  -0.02190503 -0.015482957  0.042187798 
  116000     263.9926      10709.6     2924.207    25.190869 0.00048071891 0.0032916873 0.0058335471 
  117000    273.75705    22156.499     2924.207    25.530836 -0.021417804 -0.018898934   0.01564923 
  118000    287.44131     7499.625     2924.207    27.424263 -0.020205819  0.022940398 -0.034263401 
  119000    297.36376    13634.454     2924.207    28.099339   0.03058275 -0.0054149895  0.011416997 
  120000    258.35265    12004.673     2924.207    29.920044  0.023133681 -0.042682755  -0.03423505 
  121000    259.27681    21375.497     2924.207    31.027447 -0.010500907 -0.047612623  0.022626014 
  122000    267.35815    13562.745     2924.207    29.655037 -0.085184337 0.0080023058  0.014610154 
  123000    259.88788    22291.808     2924.207    26.958425 -0.035520343 0.0072062866 0.0013974573 
  124000    281.80445    7517.8169     2924.207    28.308342 -0.020039065  0.012534454 0.0013767579 
  125000    276.62542    17036.989     2924.207    31.440134 -0.0013376677 -0.021582333 0.00066882096 
  126000    277.93374    10308.123     2924.207    30.787747 -0.0037603473   -0.0249754  0.031926978 
  127000    241.79049    16970.191     2924.207    29.998978  0.028668404 -0.030981841 0.0098204322 
  128000    265.52078     12333.63     2924.207    28.373735 0.00030143015  0.010727872 -0.0025980323 
  129000     279.7231    11265.584     2924.207    26.307569 -0.0040808255 -0.010655316 -0.025404998 
  130000    271.91887        15463     2924.207     25.50359 -0.0034479363  0.018207175 0.0076881309 
  131000    277.11027     8098.176     2924.207    25.184916  0.014916896 -0.0083536976  0.011742358 
  132000    256.74098    16272.227     2924.207    25.904553  0.018450961  0.022794088  0.014387856 
  133000    261.59888     13597.73     2924.207    29.480051 -0.013590792 0.0064301246 -0.0058696987 
  134000    268.24832    15904.505     2924.207    30.765422  0.040931164 -0.0011631665  0.061022267 
  135000    287.13992    5834.8746     2924.207    25.960327  0.032405949 -0.018814432  -0.01975295 
  136000    266.91763    15979.174     2924.207    20.218245 -0.014775988 -0.013018833 -0.016364965 
  137000    262.18562    11927.201     2924.207    19.571267 -0.0076976255  0.034352699 -0.030474892 
  138000    279.99678    10280.367     2924.207    21.744589  0.011783622  0.039588323 -0.036571809 
  139000    277.07819    12335.973     2924.207    21.464364   0.01676907  0.019321442  0.024137214 
  140000    282.60355    10869.866     2924.207    17.440268  0.037119673 -0.035549444  0.008295632 
  141000    263.54066    15253.989     2924.207    17.354487  -0.01051458  -0.01156862     0.022584 
  142000    274.19932    11045.777     2924.207    22.725648   0.00125501 -0.0063924912 -0.017491522 
  143000    269.96008    15470.925     2924.207    28.013584 0.0016133518 -0.0014386971 -0.032028036 
  144000    287.53247    7742.4964     2924.207    30.082352  0.023163421  0.018564525  0.014322739 
  145000    273.49357    13019.106     2924.207    31.125766 -0.0050468021 -0.025696077  0.024912343 
  146000    266.10608     17925.28     2924.207    31.888128 0.0064098424 -0.0096623907 -0.025074072 
  147000    276.31524    18759.777     2924.207     33.71897 -0.0049081104 -0.00079049979  -0.02192352 
  148000    282.48501    8527.0761     2924.207    34.498674   0.01407379  0.037393423 -0.016911226 
  149000    256.44354    14942.953     2924.207    32.404189  0.013535152 -0.014492878  0.018221116 
  150000     292.5814    13504.862     2924.207    28.750431 -0.0033504118   0.01403284  0.042361541 
  151000    269.06847    15794.998     2924.207    27.247826 -0.021726392 -0.012595876 -0.013080903 
  152000    264.09352     12287.57     2924.207    28.710837 -0.045075227 -0.018845911 -0.010953391 
  153000    289.76528    11002.225     2924.207    32.799387 -0.011294394  0.020557039 -0.023908365 
  154000    285.44908    17415.909     2924.207    34.907545 -0.024156689 0.0051600606 -0.013496832 
  155000    228.29648    9660.6217     2924.207    34.331125  0.013057027 -0.00099321635 -0.024548699 
  156000    273.96329    15810.216     2924.207    30.035562  0.019310181 -0.0018361497 -0.015617516 
  157000    275.75882    15876.606     2924.207    24.219822 -0.00093905584  0.042327084   0.01507337 
  158000    289.14607    10098.057     2924.207       20.586  0.033872233  0.025816265  0.021017511 
  159000    269.34496    14388.189     2924.207    23.955505 -0.005302975 -0.0049850771 -0.011716489 
  160000    257.88865    13792.584     2924.207    27.058362 0.0050915451 -0.051765434 -0.040384274 
  161000    272.71535    5387.1561     2924.207    27.053634  0.012045225  0.041672465 -0.019098917 
  162000    272.80662    19270.792     2924.207    28.343553 -0.012760143 0.0091041477  -0.01145987 
  163000    276.36383    13101.031     2924.207    30.239916 0.0063497011 0.0097806717 -0.0015446266 
  164000    290.92655    9646.2851     2924.207    33.082596 -0.048904493  0.032513411 -0.015535673 
  165000    271.09672     12074.37     2924.207    35.511177 0.0022017325 -0.0069026951 -0.042123362 
  166000    271.89175    17047.221     2924.207    36.258525  0.020148452 -0.013923905 -0.0013614164 
  167000    266.54505    15296.873     2924.207    35.125011  0.010867485 -0.0044711931 0.0099740662 
  168000    278.77133    19666.893     2924.207    33.769766 -0.016145066  0.025443942 0.0082227346 
  169000    261.28144    8642.7076     2924.207    32.344176   0.01828379  0.018783327  0.033926516 
  170000    255.91919    14545.031     2924.207    29.126021  0.029330998 0.0068483432 -0.014512005 
  171000    276.88524    9576.2541     2924.207    28.476829 0.0024472621  0.018855269 -0.013600658 
  172000    268.88581     18077.34     2924.207     30.26367  0.008988597  0.038010157  0.015715317 
  173000    276.64159    9385.1367     2924.207    31.779968 -0.0077812996  0.018087243   0.01833542 
  174000    264.57702     18184.73     2924.207    33.499409  0.029619452  0.016245746 -0.019800947 
  175000    255.91348    13725.998     2924.207    35.953064 -0.015403239 0.0019644495  0.031807092 
  176000    280.07281    9156.0354     2924.207    35.741601 -0.061336069   0.03140743  0.010229492 
  177000    270.32448    11471.917     2924.207    35.132952 -0.021702143 -0.0091248849  0.016121713 
  178000    260.46737    14731.513     2924.207    32.924571 -0.027408861 0.0013453302 -0.0085243808 
  179000    288.86541     14356.11     2924.207    27.162981 -0.037949627  0.020083062  0.024712786 
  180000    259.99651    17418.579     2924.207    22.796333 -0.011385817 -0.027292196 -0.029832282 
  181000    280.09791    14312.989     2924.207    25.468225 0.0030710087 -0.027667358 -0.042274884 
  182000    282.01413    21307.807     2924.207    30.112648 0.0075406806   0.02267118 0.0044900333 
  183000    270.15349    4376.2037     2924.207    31.275865 -0.0052349576 -0.057110576 -0.023925612 
  184000    277.95882    13121.077     2924.207    31.127308    0.0376878 -0.028053305 -0.029615501 
  185000    252.32034     12736.32     2924.207    30.928519 -0.011092195 -0.0092701782 -0.027535069 
  186000    294.08383    12846.431     2924.207    30.845422 -0.018217838 0.0043143763   0.04420112 
  187000    275.10397    6524.6709     2924.207    32.460783 -0.013051904  0.029519889 -0.0091040894 
  188000    259.37997    14932.368     2924.207    29.252933 -0.017944698  0.011085498  0.016545235 
  189000    276.77903    8606.8754     2924.207    26.531614 -0.010854463 -0.043551971 0.0011578254 
  190000    272.11451    15138.599     2924.207    24.579968 -0.0028879095 -0.017624059  0.044505559 
  191000    279.63895    15978.666     2924.207      21.9622 -0.013498674 0.0013636387 -0.012587243 
  192000    270.45181    9620.4465     2924.207    21.180269 0.0065761915 -0.020506823  0.040177232 
  193000    261.81734     10346.88     2924.207    22.975513 -0.012868141  0.039788004  0.020348671 
  194000     280.5141    13252.287     2924.207    26.819127 -0.027787239 -0.0067459372 -0.029359383 
  195000    279.02607    6817.4879     2924.207    28.560516 -0.027687009  0.021203586 0.00043407415 
  196000    301.41555    11553.142     2924.207    28.775281 0.0067110037  0.029949785 -0.019757046 
  197000     265.9543    16344.257     2924.207    28.821427  -0.03118079 -0.0068752165 -0.011936959 
  198000    285.89735    10546.623     2924.207    28.368676 -0.023349789 0.0038576655 -0.061563816 
  199000    270.69897    12021.755     2924.207    29.722473  0.040956475 -0.016918257 -0.026708268 
  200000    260.34659    14731.465     2924.207    33.539871  0.009901488 -0.012051526  0.036021489 
  201000    285.77192    10248.371     2924.207    35.280422 -0.0075118119  -0.01252299 -0.010170162 
  202000    280.70413    12221.889     2924.207    33.463658    0.0559053 0.0040396448 -0.018245222 
  203000    278.27215    11628.957     2924.207    30.694731 -0.022158266 0.0049813262 -0.0017823497 
  204000      289.871    8054.6084     2924.207      29.0947  0.014486268 0.00032776341 -0.0062330217 
  205000    281.67391    11232.567     2924.207    30.835755 -0.0026287251 -0.029372308  0.027324381 
  206000    285.53863    14818.712     2924.207    33.414062   0.02032382 0.0012802888  0.019286246 
  207000    255.55508    14050.984     2924.207    33.609639 -0.016597734  0.038153738 -0.011275726 
  208000    292.03877    10063.168     2924.207    30.377387 -0.0011708566 0.0072033034 -0.0093077641 
  209000    267.76844    13814.515     2924.207     29.69578 -0.0093759167 -0.033300155  0.058573039 
  210000    287.70654    9677.8676     2924.207    31.482388 0.0011112113 -0.035254283 -0.001555872 
  211000    270.39035    11670.886     2924.207    33.340767 -0.017515654  0.016929071   0.02415517 
  212000    286.84562    10323.298     2924.207    35.507153  0.046032391 -0.0096438002 -0.012408342 
  213000    255.79747    13195.748     2924.207    35.702535 -0.0036569255  0.013442306   0.03466414 
  214000    279.84029    12599.822     2924.207    33.330878  0.030624127  0.010039313  0.032206269 
  215000     278.2088    8875.7669     2924.207    30.009235 -0.0041308904 -0.015095875 -0.00022110232 
  216000    280.45762    11455.563     2924.207    26.967269  0.019563716  0.028990374  -0.00304574 
  217000    276.57884    19684.047     2924.207    24.888727 -0.0038867433 -0.011666366 -0.034645269 
  218000    270.03039    9386.2362     2924.207    23.941357  0.023214173 -0.013351704 -0.017768525 
  219000    280.66371    17040.077     2924.207    24.786824 -0.026683639 -0.019800913  -0.01222635 
  220000    279.71718    5297.8703     2924.207    23.873438 -0.026292841 -0.037514131 -0.011178347 
  221000    272.02689    12637.803     2924.207    24.953037 0.0019187343 -0.019334534 0.0085192753 
  222000    255.96358    4265.7398     2924.207    28.739676  0.025750751 0.0042567096  0.064202288 
  223000    279.14809    11619.602     2924.207    31.279738 -0.027940416  0.033250513 -0.020208094 
  224000     242.8798     15579.43     2924.207    31.349151  0.022697034 -0.017316871 -0.0051669611 
  225000    271.09736    10798.204     2924.207    31.386624 -0.015151915   0.04449049  0.030234046 
  226000    271.97814    11276.043     2924.207    31.474432 -0.048731388 0.0080474279  0.004419694 
  227000    278.94997    10309.919     2924.207     30.98346 -0.0099783826 -0.021280481  0.020831955 
  228000    275.27894    10675.735     2924.207    32.049421 -0.0052424596  0.015311227 -0.0048753451 
  229000    263.76297    12790.567     2924.207    33.881255 -0.027745518  0.021723242 -0.016230716 
  230000    261.47975    7014.9787     2924.207     33.20082  0.029199886 0.0027658576 -0.021950722 
  231000    277.27559    15370.799     2924.207    31.300721 0.0048090611  0.012303018  0.035532837 
  232000    261.39882    18998.715     2924.207    30.035127 0.0020336036  0.026197815  0.016928932 
  233000    297.96585    6860.0687     2924.207    29.286212 -0.047395328 -0.010225758  0.011034599 
  234000    274.13821    15675.358     2924.207    27.864192 -0.0036249989 -0.023525976 -0.0033981202 
  235000    287.39645     14045.85     2924.207    26.824573  0.013954253 -0.015277341 -0.030602183 
  236000      279.778    7252.7347     2924.207     27.36321  0.001536601 -0.0036541826 -0.035960335 
  237000    280.81212    8379.7236     2924.207    28.934405  0.019178859   0.04499237  0.013937774 
  238000    282.20104    18673.488     2924.207      30.8811  0.047433275   0.01175256  -0.02736343 
  239000    268.99841    6553.3902     2924.207    30.481975 -0.00081470628  0.037922732 -0.017285598 
  240000    296.11358     3131.776     2924.207    25.197973  0.023914359  0.024525919 -0.023960246 
  241000    271.79226    18040.561     2924.207     24.75561  0.030742051  -0.02216016 -0.019654697 
  242000     287.1223    4658.4733     2924.207    25.394431 -0.024968318 -0.0081754607 -0.011356643 
  243000    282.69564    14519.925     2924.207    25.024347 0.0040663124 -0.021807579 -0.010561979 
  244000    279.75384    8844.3561     2924.207    24.873883 -0.0051784215 -0.017212887   0.01632555 
  245000    288.94301    10467.798     2924.207    26.564474 0.0080781744 -0.030553279  0.022695336 
  246000    268.81635     12952.65     2924.207    30.686872 -0.026018432  0.035581726 0.00097268545 
  247000    263.96233    12800.374     2924.207     32.30504 -0.0059637196   0.02361095  0.037074341 
  248000    270.30673    16674.529     2924.207    32.172482 -0.0025043338 -0.011582892  0.018673634 
  249000     253.5392     7950.921     2924.207    30.563677 -0.012162787 0.0038442059 -0.0027006416 
  250000    271.70063    13110.188     2924.207    28.547278 -0.0016656405 -0.0098841427 0.0029441167 
  251000    284.74849    16541.798     2924.207    28.818851 -0.0073838463 -0.033252515   0.01328001 
  252000    270.51701    4498.2874     2924.207    31.152912 0.00056924023 -0.0032488548   0.04694742 
  253000    275.50856      18700.1     2924.207    30.934283  0.032947806 -0.024275748 -0.0086283027 
  254000    291.78771    6406.0869     2924.207    28.810754 -0.0039583173 -0.0061711059 -0.014421103 
  255000    255.00063    14583.451     2924.207    28.275493 0.0034424606 -0.010157331  0.022996573 
  256000    271.19586    11405.971     2924.207    27.199116 -0.038870002 -0.008162512 -0.037190111 
  257000    273.61132    11431.767     2924.207    26.702873 -0.027028121  0.010925275  0.011222498 
  258000    270.50812    10775.394     2924.207    28.541245 -0.024787298 -0.026443081 0.0016315382 
  259000    254.87091     22486.65     2924.207    30.185673 -0.00025117159 -0.0026733281 -0.027288604 
  260000    283.37419    7307.4412     2924.207     29.92227  0.014598465  0.014700278  0.016291995 
  261000    284.78921    14406.949     2924.207    31.360301   0.02588587 -0.0076067473 -0.010048234 
  262000    276.76717    13212.267     2924.207     31.92357  -0.02598741 -0.00094671188 -0.037709384 
  263000    284.67272    11839.961     2924.207    28.746378 -0.0091310828  0.025034639 -0.019516595 
  264000    256.49333     13634.28     2924.207    25.557447 0.0015759542 0.0046528875  0.010738362 
  265000    290.41502    4754.7321     2924.207    24.638802  0.039141548 -0.00023985425  0.033416069 
  266000    290.25612    13006.659     2924.207    25.833876 -0.0090572957 -0.00029029831 -0.0013674231 
  267000    267.56868    14816.182     2924.207    26.034787  0.012767639 0.0070913727 -0.013964087 
  268000    275.05448    12618.026     2924.207    26.293676 -0.031580514  0.031439319 -0.0097427057 
  269000    261.27323    6769.2279     2924.207    28.139398 0.00086371063  0.011532048 -0.0044070699 
  270000    282.57982    9422.9582     2924.207    27.960657 -0.019206613  0.017280887  0.015436301 
  271000    279.81839    12410.197     2924.207    28.138577 -0.0054534517 -0.031368863  -0.01115195 
  272000    282.14087    10267.154     2924.207    30.488329  0.003659991  -0.01556647  0.032302555 
  273000    277.41167    11564.857     2924.207    32.260506 -0.003303693 -0.014649499 -0.023492518 
  274000    284.02945    9374.3829     2924.207    32.399085 -0.0011462957  0.021505883  0.027467161 
  275000    278.31505    14595.176     2924.207    32.776255  0.012536386 -0.020646119  0.033982728 
  276000    251.67446    12053.339     2924.207    34.997402 -0.018425824 0.0024802083 -0.0012201545 
  277000     279.8735    9072.8997     2924.207    33.540302   0.03370967 -0.023992729 -0.00096629567 
  278000    267.00006    18024.229     2924.207    30.461374 -0.039233111 0.0052896169 -0.0067736054 
  279000    259.36075    11176.467     2924.207     29.43706 -0.037293713  0.022409465 -0.0050433082 
  280000    276.29286    10443.301     2924.207    29.954152   -0.0429331  0.028713794  0.021988124 
  281000    270.54579    16316.301     2924.207    32.336634  0.062025927 -0.038505506 -0.012172543 
  282000    255.44504    7968.6356     2924.207    32.881218  0.013691619 -0.014698577  0.021383344 
  283000    270.57398     10209.77     2924.207    31.361538 -0.013164372 -0.027268239 0.0084762404 
  284000    274.95511    5355.7452     2924.207    29.759621  0.023667855 0.0064656026  0.027836654 
  285000    273.38341    13534.079     2924.207    31.132652  0.022301945 0.0045256154 0.0042535853 
  286000    262.71766    9501.9671     2924.207    31.423771  0.011435854 -0.017056806 -0.0085564812 
  287000    280.74205       9585.5     2924.207    31.186158 -0.023114134 0.0081893906  0.037077543 
  288000    272.65698    10340.728     2924.207    29.862074  0.023035704 -0.013531728 -0.0093370533 
  289000    279.81268    12974.988     2924.207    28.033021 -0.010646881 0.0010796746 -0.023180878 
  290000     299.8941    3429.1119     2924.207    29.079168 -0.014643203  0.013205604 -0.038750238 
  291000    275.28112     14067.83     2924.207    30.476585 -0.012401007    0.0482296  0.003667352 
  292000    264.16224    10767.376     2924.207    30.171509 -0.015899758  0.025910895 -0.022159105 
  293000    261.04137     15818.67     2924.207    26.885966 0.0042847134  0.046137729 -0.012492905 
  294000    281.72552    6341.1422     2924.207    26.014514 -0.0017033198 -0.012930767 -0.025447661 
  295000    290.97231    13842.092     2924.207    28.253678 -0.0095688874 -0.053950602 0.0029063981 
  296000    277.30655    8820.9446     2924.207     33.59253  0.049158998 -0.0027987222  0.024274015 
  297000    275.95567    13421.135     2924.207    35.585225  -0.01669641  -0.01979295 0.0042502847 
  298000     277.9021    7049.3293     2924.207    35.816134 -0.032611104 -0.016300394 0.0022529537 
  299000     243.9232    12853.191     2924.207    34.490988 0.0076816393 0.0079636884  0.028198408 
  300000    291.15489     7861.254     2924.207    32.428353 -0.010085735 -0.012708751  0.058470072 
  301000    282.01974    9136.8827     2924.207    31.803941 -0.015216026  0.003950307  0.036577018 
  302000    283.42809    12651.898     2924.207    34.160597 -0.0051748682 -0.015650867  0.020305326 
  303000     273.0669    11112.892     2924.207    32.911961  0.028967893 -0.028404645  0.012493908 
  304000    293.47724    11030.055     2924.207    29.856679 -0.021095668 -0.040715217 -0.015015953 
  305000    276.13306    8060.3714     2924.207    28.657261 -0.0017764091 -0.017571317 -0.018596908 
  306000    278.94402    16378.282     2924.207    28.697561  0.011618272  0.047307803  0.031638907 
  307000    267.03373    8617.7111     2924.207    29.819619  0.018841138 -0.015213831 -0.0090315372 
  308000    286.67078     7443.734     2924.207    29.071452  0.027103848 0.0030484136 -0.022904231 
  309000    263.63954    11663.651     2924.207    25.951947 -0.0040578382 -0.017724656  0.046136015 
  310000    289.29113    7379.5385     2924.207    21.600913 0.0082176456  0.052993869 -0.013246036 
  311000    275.10998    10796.957     2924.207    20.322524 -0.014585971 0.00082039798 -0.018313915 
  312000     283.2525    10964.192     2924.207    24.383207  0.016486728 -0.0084409524  0.031782301 
  313000    279.51131    7901.4241     2924.207    28.028203  0.050321823 -0.022446786 -0.017350412 
  314000     268.2108    12375.817     2924.207    24.609047  0.013130322 -0.0025442258   0.03535951 
  315000    278.12534    6052.0817     2924.207    17.403905  -0.01032172 -0.0043413866 -0.0057529726 
  316000     269.3543     11194.55     2924.207    16.087889 -0.037544982  0.050711864 -0.030587032 
  317000    276.49342    9812.2073     2924.207    24.089235 -0.012963199   0.01124954 -0.00032998457 
  318000    265.14733    15681.936     2924.207    31.622075  0.020984797 -0.045132386  0.016774137 
  319000    276.01042    8403.5897     2924.207    32.810062  0.015122933 -0.024381694  0.030346839 
  320000    270.48797    8453.1814     2924.207    26.789917  0.040469147  0.002500845  0.009515696 
  321000    253.14286    14563.679     2924.207    18.365139 -0.0069010656 -0.014202247 0.0074861222 
  322000    270.87968    9230.8963     2924.207    17.405191  0.014429998 -0.012440798 -0.052308566 
  323000    274.32054    11303.454     2924.207    24.480692  0.061770671  0.016030069 -0.018774885 
  324000    262.35919    7422.1935     2924.207    32.862395  0.024214915 -0.024970755 -0.013499438 
  325000     267.3869     10037.45     2924.207    32.713205 -0.032344409 -0.0016628987 -0.000687314 
  326000    287.84204    9539.1727     2924.207    27.067377 0.0067802396 0.0033374034 -0.007458566 
  327000    261.29656     16269.52     2924.207    22.393161  0.010525872 -0.017655645 0.0069657698 
  328000    254.62012    4351.7259     2924.207    24.531347 -0.0055686666 -0.017736575 -0.017722413 
  329000    248.42906    15886.076     2924.207    29.837132  0.021533539 -0.017008864 -0.0044955717 
  330000     284.9127     8865.193     2924.207    32.093269 -0.0017031207  0.011806335 -0.015559274 
  331000    279.83356    4477.6521     2924.207    31.238022  0.021332817 -0.012761628  0.025500233 
  332000    263.83342    13548.705     2924.207    25.972955 -0.0083211371    0.0199989 -0.023792025 
  333000     266.5773    14725.709     2924.207    22.726005  0.035033979 0.0092673724  -0.02225544 
  334000    273.40376     4267.589     2924.207    24.166312 -0.028479855  0.015432311 0.0058341498 
  335000    271.10286    10684.545     2924.207    29.928856  0.032622878  0.014154804 0.0092122205 
  336000    288.17849    11172.865     2924.207    34.820013  0.051122359  0.033626337  0.016496856 
  337000    272.15286    11914.825     2924.207    33.712859 -0.015438791  0.015300983  0.042175774 
  338000    282.73402    15857.185     2924.207    29.236091 -0.0058608481 -0.010122485  0.027316665 
  339000    248.87736    5543.7169     2924.207    25.507686 0.0083590371  0.025914584 0.0005898383 
  340000    276.98839    15525.002     2924.207    23.320567  0.031901346  0.010918201 -0.0069989838 
  341000    267.50915    17699.789     2924.207    24.222806 -0.00040889644 -0.041083017  0.012457792 
  342000     277.7275    1875.0707     2924.207    28.763542  0.011494257 -0.030810422  0.022995986 
  343000    279.18432    19332.039     2924.207    32.675881 -0.017363642  0.025869289 -0.0055036645 
  344000    255.11647    10287.189     2924.207    34.613761  0.015732089  0.017688999  0.061793919 
  345000    281.90922    5417.4416     2924.207    31.770335 -0.0060452698 -0.033700922  0.043141501 
  346000    261.16606     10630.02     2924.207    26.762288 -0.0013915137  -0.04374366 -0.016225747 
  347000    278.42929    10261.758     2924.207    23.223377 -0.0052113799  0.014053236 0.00027622404 
  348000    269.68774    7592.9393     2924.207    22.463878  0.012930086 0.0092530759 0.0078028581 
  349000    255.67838    16295.622     2924.207    24.355341 0.0089206901 -0.0041155361 -0.018530267 
  350000    274.43018    11429.465     2924.207    27.612403  0.017573903 -0.055466307 -0.035595572 
  351000    289.37315    9101.5927     2924.207    29.669191 -0.0046146743   0.02028374 0.0011013873 
  352000    273.50882    13683.749     2924.207    31.532492  0.020614913  0.013633143  0.016956183 
  353000    271.87361    10374.601     2924.207    33.267428 0.0098114225 -0.029708718 -0.0047137047 
  354000    271.84539    6972.8468     2924.207    30.759078 -0.010196512 -0.019961393 -0.0060114056 
  355000    260.15871    13451.355     2924.207    28.706076 -0.0026215018 -0.061857348 -0.0070606445 
  356000    283.94683    6712.4898     2924.207    30.076364 -0.013905655   0.01892683  0.029701329 
  357000    257.86733      3376.11     2924.207    31.185136  0.032389057  0.019284308  0.017745998 
  358000    277.99525    11269.068     2924.207    32.377901 -0.00029013569  0.037419478  0.041901691 
  359000    280.82498    14882.149     2924.207    34.154695  0.027276155 -0.0036108354 0.0084748392 
  360000    257.66995    8219.1731     2924.207    34.595418 -0.025045743  0.028717965   0.01286158 
  361000    277.81115    5562.9833     2924.207    34.694975 -0.014482573   0.01945821  0.029740037 
  362000    267.11405    15852.121     2924.207    34.109807 -0.0040641371   0.03705841 -0.040220622 
  363000    264.47832    14498.507     2924.207    32.831688 -0.00081075609 -0.014322518 0.0026157704 
  364000    264.87135    13508.726     2924.207    31.175055  0.027171002 -0.030816652 -0.018176063 
  365000    266.38152    12641.245     2924.207     31.14372  0.010628966 -0.020143504  0.035484952 
  366000    253.23981    14031.976     2924.207    32.506978 0.0035895274 -0.028421811    0.0340612 
  367000     287.6918    6369.8829     2924.207    32.325434  0.018900762 -0.018256152  0.025144348 
  368000    261.29115    17816.167     2924.207    32.944285  0.018773812 0.0054586556 0.0033679823 
  369000     274.2884    12442.541     2924.207    31.941995  0.039556739 -0.010355399 -0.039781531 
  370000    255.00224    5399.5349     2924.207    31.273808  0.011503724 -0.009761783 -0.031083839 
  371000    271.23202    13395.443     2924.207    30.963598  -0.01976392  0.040157595 -0.026465305 
  372000    260.82759    9915.7583     2924.207    30.636032  0.014375923  0.047198898 -0.003212395 
  373000    266.58003     9455.452     2924.207    30.291147  0.005324732 -0.020843288   0.01970441 
  374000      262.092     9865.987     2924.207    29.452558  0.010457098 -0.0027572561  -0.01775128 
  375000    300.91379    7910.3865     2924.207     28.02256 -0.0002624659 0.0022435958 -0.0015104976 
  376000    258.19087     8982.784     2924.207     28.51773  -0.01382592 0.0071308101 -0.0093505227 
  377000    248.95942    7147.8073     2924.207    30.563746  0.015127469 -0.021376792 -0.044220812 
  378000      269.518    11837.119     2924.207    32.440999  0.029872152 -0.025303304 -0.0098101991 
  379000     282.6032    8073.0916     2924.207    31.028831  0.040403263 -0.015396242 -0.018008969 
  380000    286.87861    5171.7866     2924.207    26.845006    0.0200711 -0.026673563 -0.046302749 
  381000    253.48071    12707.617     2924.207    22.510664 0.0019256634 -0.0089353048 -0.053098687 
  382000    278.17526   -1712.0575     2924.207    19.517083 -0.026863298 -0.036671232 0.0043740123 
  383000    265.25094    20452.971     2924.207    19.405471  0.036581087 -0.041556893  0.022194375 
  384000    271.97652    10348.605     2924.207    19.152524  0.020946911 -0.021249214  0.040888984 
  385000    276.27928    7291.3235     2924.207    21.072098 0.00010730737 -0.002346168 -0.010870305 
  386000    290.52291    8575.8599     2924.207    27.199389 0.00050787935 -0.018956935 -0.0055472832 
  387000    284.99095    7011.7446     2924.207    33.153975  0.013012418  0.001293298 -0.0071712425 
  388000    271.08507    13990.073     2924.207    35.037285 0.0046745903 0.0064511075  0.008647088 
  389000    276.33136    8114.6034     2924.207     31.06337 0.0098802357 -0.0056099459 -0.0036768171 
  390000    260.68375    5255.9865     2924.207    26.320596 0.0097210369  -0.02699785  0.018962714 
  391000    275.74287     13219.06     2924.207      23.7185  0.027730411 0.0095494291  0.010519983 
  392000    281.29335    3304.6715     2924.207     24.52444 0.0011144021 -0.026939978  0.028548775 
  393000    256.26628    10737.024     2924.207    28.839449 -0.030026556 -0.0023824232 -0.031712455 
  394000    272.04124    7549.3832     2924.207    30.691813  0.031437096 0.0024867786 -0.029321607 
  395000    284.06798    12210.011     2924.207    28.253657 0.0058641354  0.061547583  0.024626282 
  396000    265.05968    10026.098     2924.207    25.226154 0.0073421607   0.05392832 -0.012524373 
  397000    256.68706    12899.437     2924.207    24.764369 -0.022002527  0.024211079 -0.040193046 
  398000    271.97719    8205.2666     2924.207    25.693049 0.0034974382 -0.018366612  0.021263061 
  399000    257.22724    5321.4608     2924.207    26.685206 -0.024861826  0.037674401  0.019848377 
  400000     272.5069    14632.024     2924.207    26.071932 -0.028653118 -0.0090668718  0.022325276 
  401000    275.69574    15189.054     2924.207    24.113884 -0.0076923638  0.018561857  0.041350888 
  402000    278.56552    953.15302     2924.207    23.263464  0.014878393   0.02498496 -0.021622465 
  403000    281.48574    9983.7618     2924.207     20.78054  0.015998389 0.0033475443 -0.014044847 
  404000      270.776    10928.057     2924.207    20.239474  0.027455061 0.0020697379 -0.021774274 
  405000    260.26824    10620.069     2924.207    24.703853 -0.00075701536  0.030977227 -0.010539944 
  406000    279.64281    5330.0463     2924.207    31.032191 -0.0052751182 -0.013099262 -0.032921465 
  407000    271.10687    8651.1173     2924.207    32.570142  0.015759213  0.030107747  0.028385214 
  408000    279.49849      6726.83     2924.207    28.224232 -0.0068029607 -0.016355826 -0.024491131 
  409000    273.01937    9174.4893     2924.207    23.583486  0.043539773  0.028541842 -0.021881374 
  410000    284.72376    7675.1262     2924.207    23.174075 -0.0088947509  0.010482239 0.0089613859 
  411000    267.28143    7761.7964     2924.207    27.786757  0.010385706 -0.011861631 0.0096827344 
  412000    277.21143    11336.747     2924.207    30.918215 -0.015025266 0.0014466719 -0.031584133 
  413000    274.61651    12213.166     2924.207     32.32601  0.022585776  0.033476136 -0.017487174 
  414000    263.20906    5471.5048     2924.207    32.882465 -0.024746527  0.025481275 -0.0063665952 
  415000    266.15487    19926.956     2924.207    33.759976 -0.0014270925 -0.015313961  0.043084207 
  416000    276.37488    10030.508     2924.207    32.262042 -0.011028289 -0.0067603786 -0.025085449 
  417000    263.30699    4845.9826     2924.207    29.388706 -0.0076368284 0.0075464809  0.015204983 
  418000    286.93168    14074.835     2924.207    27.172663 -0.044979954 0.0092708747 -0.015874241 
  419000    268.80703    4404.7817     2924.207    24.894727 -0.0080421404  -0.01109309 -0.0042257697 
  420000    276.23559    3206.1475     2924.207    24.221745  0.011380394 0.0012681737 0.0050802353 
  421000    279.28111    7967.8576     2924.207    24.731661 -0.024793356  -0.04693095 0.0019003497 
  422000    272.87872    12744.922     2924.207     27.13099  0.025443693   0.02534425  0.030399599 
  423000    274.85938    4631.2274     2924.207     29.59233 -0.00053030291 -0.009296821 -0.019184501 
  424000    263.72378    17441.362     2924.207    29.193635 -0.004762449   0.01877387 0.00030588105 
  425000    269.94421    462.78579     2924.207    27.906217  -0.01450021 0.00027807739 -0.0036341629 
  426000    286.90342    15300.029     2924.207    30.600797  0.025997525 -0.0043168562 -0.010413739 
  427000    256.61748    4803.8189     2924.207    33.702878 -0.0070810122  0.017449821 0.0087561964 
  428000    262.96896    8622.4505     2924.207    34.534584 -0.017348289  0.041277927 0.0022056115 
  429000    278.18091    14723.528     2924.207     33.76425 -0.0068547682 0.0012383907 -0.024810922 
  430000    258.13605    4716.5367     2924.207    31.423872 -0.025927113 -0.0039811536 0.0082724692 
  431000    266.59952    11345.185     2924.207    27.939177 -0.018225449 0.0006534133 -0.014168536 
  432000    276.94546    15829.339     2924.207    25.877486 -0.048436731 0.0090246919  0.003744235 
  433000    275.44176    7093.0309     2924.207    27.300693 -0.027760324 -0.033445964  0.032043696 
  434000    282.18327    3988.8265     2924.207    29.519699  0.018087181 -0.016988244  0.014430653 
  435000    272.63184    13047.298     2924.207    31.118989   0.03973928  0.007357954 0.0069199034 
  436000    272.79529    7157.6019     2924.207    29.045192 0.0098104411 -0.047017679 -0.0059769659 
  437000    271.59725    13401.927     2924.207    27.132919 0.0092870102 0.0012460259  0.012215546 
  438000    272.81953    5955.4736     2924.207    27.522696  -0.00773132  -0.01895944  0.016324873 
  439000    269.31833    11694.013     2924.207    27.840957   0.00950946 -0.030930297 -0.018453915 
  440000    296.54708    4464.2939     2924.207    23.295731 -0.030602528  0.016870402  0.024936244 
  441000    265.95622    8559.5517     2924.207    21.434483 -0.0071193219 -0.0074951377 -0.0052970646 
  442000    271.47802     4193.307     2924.207    24.656657   0.02353941 -0.013541777 -0.038395667 
  443000    278.11644    7593.6016     2924.207    30.648303  0.017031859 -0.029281065 -0.034664678 
  444000    266.96776     9975.001     2924.207    33.374922 -0.0077229709 -0.028017073  0.046217946 
  445000    285.83971    4043.2993     2924.207    30.307292  0.006407712 -0.025653001  0.021813562 
  446000    275.21919    10598.922     2924.207    26.033776 -0.00091981958 -0.018909307 -0.057120994 
  447000    272.24561    6442.8001     2924.207      23.5368 0.0057997332  0.032834532 -7.4095136e-05 
  448000     273.8419    6044.2094     2924.207    24.110601 0.0086533596  0.015107164  0.009751274 
  449000    282.27434    7214.1602     2924.207    24.868557 -0.0023822149  0.029814688  0.013585262 
  450000    281.09749    5061.8373     2924.207    26.277218 -0.0048248441 -0.00068746713 -0.0031498468 
  451000    284.32642    13861.463     2924.207    24.377411  0.012557157 -0.0027292557 0.0058516505 
  452000    254.41876    4366.8611     2924.207     22.19203  -0.04540715  0.024780325 -0.024144245 
  453000    284.91332    7499.8658     2924.207    22.113385 -0.014512918 -0.018614117 0.0050082012 
  454000    263.82174    14061.974     2924.207    23.861401 -0.0060960764 -0.0094404733  0.039084105 
  455000    261.99667     7606.564     2924.207    25.377015 -0.012075542 -0.0030813223 0.0096354226 
  456000    258.26051    5278.5598     2924.207    26.680805 0.0049330473 0.0088701346 -0.012334576 
  457000     276.6492    9823.1393     2924.207    26.311204 -0.004626323 -0.0097084223 -0.035105605 
  458000    267.08087    14673.029     2924.207    24.630104 -0.023374233  0.024718443  0.022171947 
  459000      272.035    3399.9013     2924.207    24.736265 -0.0050830359  0.036614808  0.012593711 
  460000    270.77394    12972.867     2924.207    26.724373 -0.013056168  0.011540401 -0.028138597 
  461000    277.71617    4643.3611     2924.207    27.435956  0.026415611  0.040421285 -0.026096027 
  462000    265.92171    11899.315     2924.207    26.289937 0.0067592484 -0.017969632 -0.016722551 
  463000    268.07359    7712.0991     2924.207    24.735125  0.023880425  0.027920602  0.018466714 
  464000    268.38675    7057.6622     2924.207    25.246411  0.003260692 -0.044538236  0.013652583 
  465000     269.3428    8587.2742     2924.207    26.611713  0.042720411  0.025307175 -0.0038209802 
  466000    264.31793    17958.186     2924.207    30.065959  0.020844101  0.033772637 -0.044492049 
  467000    256.92526    8174.8418     2924.207    30.874816 -0.0026297579 -0.019706622 0.00020235465 
  468000    264.92741    8681.3982     2924.207    30.180214  0.043299919 0.0047398712  -0.01378358 
  469000    281.16908    7102.0994     2924.207    27.782305  -0.01605245 -0.014106266 -0.00080324649 
  470000    256.48829    9243.3348     2924.207    25.015259 -0.012769945  0.017764379  0.030964443 
  471000    254.13952    4594.3808     2924.207    21.267298 -0.0023880258 -0.0011495776 0.0032426916 
  472000    284.57619    11203.567     2924.207     16.38236 -0.018969312 -0.0078097165  0.008545371 
  473000    270.22702    8733.8985     2924.207    16.360259 -0.022398011   -0.0160339 -0.022730532 
  474000    277.02843    10549.774     2924.207     19.44913  0.012972132 0.0078193117  0.016169158 
  475000    288.44068    3961.8802     2924.207    21.355621  0.028566017 -0.0017572972  0.039822451 
  476000    280.11369    6555.7661     2924.207    24.655003 -0.019225492 -0.016488248   0.03052708 
  477000    265.64856    8925.7345     2924.207    27.687553   0.02409852 0.0040409241 -0.032144886 
  478000    280.93854    7160.6879     2924.207    29.156339  0.025403823 0.0017433786 -0.016688736 
  479000    277.14069    3865.1646     2924.207    28.064093 0.0040467866 -0.017913601 -0.027396558 
  480000    281.89486    7768.9012     2924.207     24.56651 -0.040042179 -0.045019792 0.0035675713 
  481000    280.47978    19857.696     2924.207    23.916981  0.011061058 -0.019638856 -0.0024290184 
  482000    283.90948    5073.3208     2924.207    28.072122 -0.030975858  0.033309527  0.015363005 
  483000    260.32301    3268.2462     2924.207    29.824499 0.0053586445 -0.0029287992  0.053830749 
  484000    286.94122    15007.288     2924.207    30.062255  0.009759626 -0.0071861037 -0.026305005 
  485000    269.11732     3304.211     2924.207    29.193233  0.020479976  0.025799476 0.0027321953 
  486000    271.00992    8632.6636     2924.207    30.699795  0.017862515 -0.0073034614 -0.0067977315 
  487000    254.47051    11934.055     2924.207    31.824029   0.02640301    0.0240185   0.03811214 
  488000     253.4297    6998.1817     2924.207    32.895874 -0.026294692 -0.0019719923 -0.017550381 
  489000    273.96236    4859.9635     2924.207    33.095546 -0.010714356   0.02779505 -0.025903123 
  490000    274.41673    15441.009     2924.207    30.698973 -0.039022289 -0.0060506478 -0.012650082 
  491000    274.82035    4612.1381     2924.207    27.677834  0.011923275   0.01495559 0.0011708347 
  492000    274.06482    12271.567     2924.207    25.083979  0.043018851 -0.028315972 -0.0076840137 
  493000      267.983    15347.256     2924.207    24.319104 -0.027203811  0.020975112  0.009038723 
  494000    286.39643    3467.5705     2924.207    26.872759  0.011477403 -0.0017226452  0.010050831 
  495000    279.21447    5220.1148     2924.207    31.845349 0.0058597307 0.0040041619 -0.017510631 
  496000    246.74041    5979.5111     2924.207     34.77352 -0.0027253808 0.0094704625  0.026134773 
  497000    276.72649    11131.783     2924.207    33.956225   0.03003228 -0.0099533064  0.044310402 
  498000    254.28017    6657.1634     2924.207    32.297288 -0.012394586 -0.0043642249 -0.025261973 
  499000    284.54772    4678.2464     2924.207    29.123654 -0.0060612755  0.020560049 0.0073592225 
  500000     254.7502     16507.98     2924.207    23.541338 0.0022325462 0.0088247651  0.010625468 
  501000    271.87828    7990.4534     2924.207    20.386962  0.024670105  0.068284167  0.020159143 
  502000     274.1147    3343.8954     2924.207     20.50797  0.011030943 -0.0015380587 -0.033946927 
  503000    271.98001    10134.479     2924.207    23.782875 -0.0092945909  0.030565174 -0.0099747936 
  504000    266.43839    5618.4728     2924.207     24.04263 0.0044522829  0.011814484 -0.0060869002 
  505000    271.25685    17969.861     2924.207    25.623857 -0.009186647  0.046185974 -0.048775161 
  506000    269.54931    4058.8484     2924.207    29.406257 -0.030025566 -0.0036772716 -0.024406216 
  507000    283.19952     13225.44     2924.207    31.522567 0.0067740872 -0.048615886 -0.016406506 
  508000     272.9642    6315.8344     2924.207    31.300014 -0.0064609335 -0.018811119  0.014344221 
  509000    270.79371    5223.5976     2924.207    27.925855 -0.020108814 -0.013254959 -0.020700798 
  510000    269.27925    12821.304     2924.207    26.355492 0.0056264418 -0.043125309   0.03885163 
  511000    274.91277    11376.011     2924.207    26.016691 -0.020746408 -0.021335576  0.037185787 
  512000    288.14016    81.369886     2924.207    27.339127  0.011333209   0.01003042 -0.0075761138 
  513000    269.06868    18305.022     2924.207    29.752911  0.003290587  0.016039079 -0.0049953128 
  514000    261.14218    12722.063     2924.207    31.937101 -0.012641406  0.040775414  0.011243334 
  515000    260.06871    3491.7233     2924.207    32.504708  0.020860467  0.015296328 -0.010658177 
  516000    267.48136    7615.0483     2924.207    30.056725  0.021699872 -0.023158088  0.013026777 
  517000     279.5435     8383.767     2924.207    27.774976 -0.047532389 -0.034937649 -0.005599814 
  518000    264.67768    12659.923     2924.207    25.231228 0.0036637775 -0.013773125 -0.028630956 
  519000    282.96187    9532.7419     2924.207    25.928378 -0.0095116095 -0.010446404 -0.016080775 
  520000    250.53031    9836.2324     2924.207    28.681817  0.026912286 -0.010975556 0.0074545764 
  521000    279.63755    10384.888     2924.207    28.778792 -0.024230704 -0.017665687 -0.016971657 
  522000    291.78649    13270.064     2924.207    24.837332  0.015473521 -0.010172868  0.015954162 
  523000    273.64644    4001.4427     2924.207    19.758381 -0.012407475  0.053410497  0.014675627 
  524000    279.63556    11361.157     2924.207    17.667357  0.013331871 -0.011330035 0.0030022461 
  525000    272.31523    12215.226     2924.207    20.821835  0.041939974 0.0077069339 -0.019921129 
  526000    268.17578     9967.203     2924.207    25.721575  0.018259554 -0.030348615  0.017815975 
  527000    263.84303    13104.289     2924.207    30.705929  0.012120268 -0.028759209 -0.0002589132 
  528000    258.67619    9539.7755     2924.207    34.676666 0.0060424332 -0.027067561  0.038434155 
  529000    275.62527    4556.0049     2924.207    35.408818 -0.013823044  -0.02240454 -0.030452118 
  530000    270.05922    16700.377     2924.207    33.235061  0.010338059  0.017344138 -0.024299339 
  531000    262.40922    6542.7901     2924.207    30.490141 -0.004356428  -0.03108391 0.00019243714 
  532000    263.23616    6760.7769     2924.207    29.151244  0.017391958 -0.020242721  -0.01911829 
  533000    266.08365    14592.141     2924.207     30.62815  -0.00650481 -0.033740361  0.011428849 
  534000    280.52586    3342.7451     2924.207     32.62004 0.0015796234 -0.017982893  0.024148926 
  535000    277.96572    7778.1509     2924.207    34.504024 0.0067086089  0.014756285  0.017643024 
  536000    272.97052    14243.963     2924.207    35.572822  -0.01413856 -0.024237695 0.00048817586 
  537000    263.01937    2169.9287     2924.207    35.329487 -0.021083612 -0.0071468765 -0.010613464 
  538000    276.32354    7446.5858     2924.207    32.622324 -0.0088801802 0.0086249977 -0.013362002 
  539000    263.69145    12172.613     2924.207     27.84356 0.0087798752 -0.022627522 -0.0030098699 
  540000    260.31907    3622.9864     2924.207      25.1363 -0.026458411  0.018516127  0.019663445 
  541000    256.34409    18786.628     2924.207    27.239061 0.0050225764  0.013782515  0.027424543 
  542000    274.42058    8357.4422     2924.207    31.469066 -0.016563892 -0.012245705  0.058244758 
  543000    263.21165    7990.2162     2924.207    33.409802  0.021162986 -0.020816887 -0.0083152337 
  544000    261.69927    8380.2074     2924.207    32.898698 -0.0018448749  0.012895484 -0.027419749 
  545000    282.64866    8668.3481     2924.207    32.112369  0.014069342  0.018500468 -0.042643906 
  546000    266.16029    5659.4665     2924.207    29.894402 0.0036388595  0.010590995 -0.003525139 
  547000    256.12436    5757.5189     2924.207    30.024516   0.03046504  0.031942048  0.016505361 
  548000    258.21131     7345.551     2924.207    31.561429 -0.016600364    0.0100877 -0.010925374 
  549000    271.64277    19205.627     2924.207    31.578483  0.011770285  0.000148751  0.043752099 
  550000    292.14062    4094.6289     2924.207    31.140835   -0.0067384 -0.0061394521  0.014820103 
  551000    258.23657    9652.7981     2924.207    27.805862 0.0067086562  0.027083771 0.0076237699 
  552000    262.21592    14863.058     2924.207    26.336404 -0.024889764  0.036529666 -0.0034487559 
  553000    275.58537    15211.187     2924.207    28.127363  0.023513424  0.025765899 0.0061799306 
  554000    261.01274      10038.4     2924.207    28.204871 -0.0099246959 0.0098920107  0.010697677 
  555000    283.22958    8345.1074     2924.207    26.424329 -0.026351066  0.021389827 -0.014326248 
  556000    263.43366    11891.988     2924.207    24.579408 -0.037524202 -0.034605675  0.018931499 
  557000    255.48264    13013.114     2924.207    27.316768 -0.0061043475 0.0033684946  0.028270841 
  558000    275.68445    7144.2697     2924.207    30.603523  0.027320152 -0.019706845  0.053547681 
  559000    278.65029    14377.285     2924.207     33.41504   0.01149874  0.015724601  0.018939778 
  560000    272.56185    7339.6623     2924.207    34.609629  0.018981933  0.020751516 0.0099888003 
  561000    275.96488    13788.199     2924.207      31.2766  0.041115195  0.029958708   -0.0152575 
  562000    261.38375    5300.7492     2924.207    25.431536  0.052966707 0.0041290553 -0.014819609 
  563000    278.89859    7304.0475     2924.207    20.580475 -0.0019883871  0.034050561  0.027895574 
  564000    268.35945    9255.9977     2924.207    21.846327  0.015049616  0.025416883 -0.018475928 
  565000    258.32821     9037.618     2924.207     27.19534 -0.018336786 -0.0021235694 -0.0013487361 
  566000    258.73661    10973.537     2924.207    31.068382   0.02843451 -0.018912289 0.0027537141 
  567000    279.28078    8525.5438     2924.207     30.76646  0.034378159 0.0069092144 -0.014780526 
  568000    261.84628    13003.389     2924.207    27.309185 -0.030544306  0.023302645  -0.01851071 
  569000    278.07464    1873.6786     2924.207    22.034994 -0.012426292 -0.0077974032 -0.013606636 
  570000    265.10067    16046.935     2924.207    21.512302 -0.00041983942 -0.033521128 -0.014193288 
  571000    264.19521    9578.7936     2924.207    26.619298 -0.048432524 -0.028217949 -0.031680368 
  572000    239.83077    4669.8561     2924.207    30.655897 0.0090654002 -0.045338944 0.00055799798 
  573000     272.6453      11745.2     2924.207    29.382777 -0.0052974946 -0.031646348   0.02025292 
  574000     269.5627    9683.8636     2924.207    25.516542   0.02437895 -0.044945137 -0.036353867 
  575000    261.20616    8280.7406     2924.207    22.437117 0.0051643368 -0.0046482024 -0.064662145 
  576000     271.7623   -1793.5595     2924.207    20.920279 -0.0038493745 -0.017306361 -0.026086665 
  577000    257.70201    18130.309     2924.207    22.602714 0.0012101572 -0.0079852312  0.018775275 
  578000    264.33978    7979.1562     2924.207    25.711794 0.0086978876 -0.010008431 -0.0083805072 
  579000    289.08906    5313.8368     2924.207    28.485661  0.019567213 -0.035263717 -0.0035419476 
  580000    279.96466    18216.291     2924.207    29.416185  0.045587079 -0.0067194098  -0.02395931 
  581000    255.98049   -875.00796     2924.207    27.054727 0.0078887322  0.010160714 5.2032918e-05 
  582000    291.36451    11122.288     2924.207    23.730419 -0.036804192 -0.0032677288 0.0036690023 
  583000     258.8847    12512.408     2924.207    24.202565 -0.015181091 -0.015328945 0.0044093835 
  584000    240.09881    4812.2057     2924.207    23.182155   0.02044667  0.019542336  0.004346114 
  585000    260.79199    14203.779     2924.207    23.837436 -0.0078097704  0.012467725  0.031842632 
  586000    255.10309    5626.9895     2924.207     25.49746  0.016710714 -0.014060626  0.014982324 
  587000     272.4938    15962.665     2924.207    24.006506 -0.0059320012  0.018354214 -0.015081487 
  588000    272.01865    3764.3757     2924.207    19.993758  0.042809734  0.013522463 0.0074033803 
  589000     284.1957    8863.4968     2924.207    17.015999  0.018795153 0.0042924702 -0.047564671 
  590000    278.70657    14761.708     2924.207    17.595432 -0.018044694 0.0078837686  0.012433997 
  591000    275.43667    1836.4758     2924.207    18.056455  0.010638684 0.0045716322  0.019688601 
  592000     265.4255    9724.6312     2924.207     18.84357 0.0049017856  0.025723462  0.019595212 
  593000    266.16389    18970.218     2924.207    19.032662 -0.0030535427 -0.010128335 0.0048899545 
  594000     273.6941   -1942.9222     2924.207     20.92321  0.040033761 -0.029689699  0.020031528 
  595000    274.12055    10762.632     2924.207    22.422999 -0.0019760552 -0.0057344526 -0.025432821 
  596000    254.88494    11224.905     2924.207    23.866677 0.0014933474  0.013571288  0.032153037 
  597000    280.14732    8039.5992     2924.207    27.142359  0.002978504  0.029334544 -0.021017001 
  598000    271.04658    10806.645     2924.207    29.658993 0.0055171386 0.0040273673  0.057632549 
  599000    293.21771    5931.4695     2924.207    29.909014  0.012829691  0.024437439 -0.018951028 
  600000    264.02989    1358.4431     2924.207    29.706736 -0.0024164903 -0.036726325  0.041728311 
  601000    273.90946    9788.6749     2924.207    27.469717 0.0076929695  0.010323303 0.0037252343 
  602000    269.50869    11009.145     2924.207    23.113811   0.01565318  0.024472032  0.012455741 
  603000    275.93953     2828.345     2924.207     20.27253 -0.010107819 -0.035857398 0.0035305166 
  604000    275.05227    14599.943     2924.207     19.72059 -0.028454098  0.015651795 -0.020563648 
  605000    271.55672    4415.6601     2924.207     21.86014 -0.012967393 -0.012957561  0.028836236 
  606000    253.66047    11355.347     2924.207    24.611387  0.025017527 -0.012880326 -0.020218972 
  607000    262.54382    9091.0738     2924.207    27.099507   0.01090387   0.01153375  0.010342594 
  608000    277.56867    7097.9515     2924.207    29.114433  0.026521948 0.0051118149  0.014658273 
  609000    264.12277    12681.044     2924.207    31.723841  0.024179098 -0.020468984  0.016350747 
  610000    267.76735    4589.0485     2924.207    31.852838   -0.0160626  0.036684677 0.0011445989 
  611000    272.76209    11857.921     2924.207    29.918256 -0.0097656463 -0.021259654 -0.013676778 
  612000    254.30059    4774.6943     2924.207    28.811798 0.0074139278  -0.00823271 -0.008188684 
  613000    262.80584    3995.4498     2924.207    29.045859 -0.0030876141 -0.0088956775 -0.0033803524 
  614000    271.57086    18815.369     2924.207    29.721897  0.022409661 -0.0078761932 -0.0036473696 
  615000    279.60998    6466.0392     2924.207    31.092259  0.029019317  0.021624045  0.017511975 
  616000    268.96701     4762.539     2924.207    30.110447 -0.011013513  0.049284451  0.028944817 
  617000     256.5918    8372.7853     2924.207    26.882975 -0.011469485 0.0022509538   0.03230157 
  618000    273.28188    11579.594     2924.207    26.125202 -0.0039126653  0.005384374 0.0040074051 
  619000    262.78618    10734.992     2924.207    26.656565 0.0017905701 -0.030529193  0.014566039 
  620000    253.82138    16424.098     2924.207    27.129425  0.004421335  0.024867713 -0.017962596 
  621000    256.92849    7289.7499     2924.207    27.880589 -0.020087515 -0.003807879  0.019551478 
  622000    250.56116    8495.6601     2924.207    29.033162 -0.022930252 -0.0013187131 -0.0084803106 
  623000    256.33458      14012.4     2924.207    29.650197 -0.0032811135  -0.03290934  0.006235918 
  624000    268.91915    7514.7064     2924.207     29.49122 -0.031081272 -0.022572449  0.012783324 
  625000    285.36424    5571.0137     2924.207    29.062519 -0.0030009243  0.002315963  -0.01815504 
  626000    253.81916    6569.7808     2924.207    30.168717 -0.010032031 -0.025031897 0.0097137743 
  627000    264.91895    12329.411     2924.207    33.120253 -0.031346713 -0.031343975  0.016127821 
  628000    255.60017    14501.642     2924.207    34.339508  -0.01085607 -0.0049717375  0.017452568 
  629000    267.63915    2736.8084     2924.207    32.825607  0.010034216 0.0026858123 -0.0046706013 
  630000    256.19449    11688.463     2924.207    30.023405 -0.039871836 0.0005303863 -0.022360892 
  631000    260.93279    8555.7249     2924.207    29.352367 0.0039942684 -0.0023234359 0.00036354043 
  632000     274.7579      6420.91     2924.207    31.029019 -0.016136394 -0.026285106 -0.0058541251 
  633000    249.88927    11921.627     2924.207    32.712544 -0.021288221 0.0053305339 -0.0071651035 
  634000    254.69634    2601.9768     2924.207    32.377845 -0.0035812509 0.0020772238  -0.02059648 
  635000    258.02997    10560.477     2924.207     28.94722  0.019562272 -0.020170751 -0.0061454316 
  636000    281.34872    5501.7393     2924.207     24.97451 -0.0069547524 -0.041257315 -0.0084338095 
  637000    273.38176    8183.6604     2924.207    24.314687 -0.027108522 -0.028001897  -0.00871359 
  638000    260.28738    4576.9077     2924.207    26.366321  0.010051809 -0.010360088 0.0026438423 
  639000    273.02597    9072.0139     2924.207    30.518601 -0.0031195898  0.028221288  0.022279692 
  640000    263.95931    8018.7027     2924.207    34.485514 -0.023678629 -0.012569595 0.0082400585 
  641000    295.43256    8815.3627     2924.207    35.549659 -0.030420925 -0.0019653406  0.019393722 
  642000    252.66129    4406.8024     2924.207    33.688028 -0.018585065  0.048778559 0.0092991931 
  643000    260.54154    11614.312     2924.207    29.930937 -0.0074413964 -0.0068320653  0.016511717 
  644000    271.61548    4403.6697     2924.207    26.794339 0.0070608789 -0.0027533817 0.0076344078 
  645000    275.97139    3957.2604     2924.207    27.015123 0.0010840745  0.018581854 0.0017222656 
  646000    258.10792    8673.7187     2924.207    29.429799 0.0030979532  0.042666148  0.004532409 
  647000    285.62562    9626.4211     2924.207    32.388879 -0.0074679824 -0.021249304 0.0011678288 
  648000    264.84258    7105.2457     2924.207    33.661676 -0.032589953 -0.027325778  0.012685144 
  649000    284.64614    3143.6396     2924.207    34.312666 -0.0076536495  -0.01560998    0.0216914 
  650000    279.33393    11374.956     2924.207     35.60801 -0.016731139 -0.027016063  0.020198633 
  651000    281.87528    13593.256     2924.207    35.954878 -0.0049672674 -0.0033179864 0.0066166705 
  652000    262.20287    475.29119     2924.207     33.37182 -0.009426146   0.03603125 -0.0067815835 
  653000    272.44058    13479.937     2924.207    28.760295   0.02570491  0.013330049  0.029041247 
  654000    272.57918    7671.2585     2924.207    25.485207  0.013743552 0.0084400069   -0.0222605 
  655000    276.83459    10115.508     2924.207    25.584878 -0.006666333 -0.027768331  0.032366081 
  656000    265.68128    4711.3901     2924.207    26.762061 -0.029381028 -0.0073779345  0.024437745 
  657000    276.62388    9787.8914     2924.207    28.526296  0.023392588 -0.024637747  0.026366323 
  658000    285.26019    2104.7726     2924.207    28.320776 -0.0056554679 -0.034955299 -0.0076073606 
  659000     286.7775    15299.112     2924.207    26.089406 0.0044727025 -0.010605284 0.0086079043 
  660000    264.33156     1730.295     2924.207    25.306875 -0.0006832408  0.026400695 -0.020742234 
  661000    278.79053    8235.9613     2924.207    24.102824 -0.029338816 -0.024814965 -0.018634091 
  662000    259.51979    10399.089     2924.207    21.715004 -0.027326072  0.024231924 -0.036575703 
  663000    276.05883    4252.3297     2924.207    20.627075 0.00055162165 0.0091359312 -0.036495235 
  664000    261.53407    8663.7828     2924.207     23.52171 -0.023182111 -0.0087572716 -0.00031560558 
  665000    262.17111    8095.4235     2924.207    27.275118 -0.030532082 -0.011575792  0.018961939 
  666000    265.93281   -3099.8531     2924.207    27.799049 -0.034436105 -0.0029723316  0.019677508 
  667000    260.80553    20281.617     2924.207    24.334509 -0.0018756293  0.032136357 -0.026804392 
  668000     276.2183    7376.0693     2924.207     22.42845 -0.0049048237 -0.015479963 -0.0070211078 
  669000     268.6793    1359.5799     2924.207     25.32679 -0.039867527  0.017553185 -0.011732549 
  670000    268.76986    14955.358     2924.207     29.35667 -0.037603211  0.029982762  0.043581532 
  671000     271.2339    1089.9808     2924.207    30.644343 -0.0058963249  0.025167173 0.0094578601 
  672000    248.75335    10318.715     2924.207    28.081776 -0.041497286 -0.010606523    0.0338138 
  673000    266.84042    14342.007     2924.207    24.970097 -0.0013763003 0.0065367042 0.0094099071 
  674000    261.50348    1159.3454     2924.207    24.455979  -0.03871102  0.030227279  0.022122993 
  675000    273.61637    4703.5723     2924.207    25.374769 0.0047294141 0.0047156362 -0.024044827 
  676000    245.71515    18368.385     2924.207    27.113431 0.0027197239 -0.017108354 0.0063061591 
  677000    287.16501    6219.8449     2924.207    30.824908 -0.027815064  -0.01264151   0.01315713 
  678000    268.39412    4115.9887     2924.207      32.7472  0.001404877   0.02630922 -0.028803441 
  679000     279.5223    7303.0989     2924.207     31.70119  0.006455405 -0.016539564  0.021046027 
  680000    279.48094    12469.091     2924.207     27.97016 -0.036315287  0.054531362 -0.012774328 
  681000    300.35906    6153.1933     2924.207    24.158971  0.034445997  0.027844111  0.032218116 
  682000    275.79245    4622.8978     2924.207    22.913705 -0.031404295 -0.0076186787 -0.0022706055 
  683000    278.08577    2617.4451     2924.207    24.427766  0.015352922 -0.0098219602 0.0055750818 
  684000    252.11673    10247.057     2924.207    28.097368  0.011920254 -0.035857641 -0.017021707 
  685000    279.91921    10044.786     2924.207    31.276685 0.0077779879 -0.0045962759   0.01945454 
  686000    269.46375     5668.335     2924.207    29.978103  0.037245058 -0.0043235845 -0.030736303 
  687000    274.38407    3767.7503     2924.207    26.699803  0.027168547  0.010296106 -0.030532389 
  688000    279.01974    15616.147     2924.207    25.542737 0.0032049375 -0.0091873713 -0.014001659 
  689000    278.78625    7180.5288     2924.207    28.340024  0.028133302 -0.004459732  0.024728599 
  690000    284.24501    7665.0128     2924.207    32.731616  0.037256304 -0.0021071028 0.0077726333 
  691000    269.76049    11097.855     2924.207    34.274707  -0.01297754 -0.020864976  0.022022885 
  692000    270.48906   -1056.1732     2924.207    31.656153 0.0069215637   0.01268757 -0.020350662 
  693000    269.11272    5705.8968     2924.207    30.098215 0.0075291325  0.037391683 0.0018912131 
  694000    272.35233     14959.41     2924.207    30.474442  0.034628004 0.0097417144 -0.021606874 
  695000    272.51635    11102.338     2924.207    30.928374  -0.03960513 -0.008321337 -0.044639178 
  696000    278.14201    4582.8278     2924.207    30.930129 -0.0098666716 -0.019061823 -0.0051420369 
  697000    268.29975    10363.791     2924.207    29.907888 -0.037596474 -0.005898527  0.010451056 
  698000    279.07977    4944.2844     2924.207    28.972864 -0.010450214 -0.019043034 -0.0012923289 
  699000    270.71504     10327.41     2924.207     27.51647 0.0026349484  0.020850102 -0.0083164294 
  700000    283.23186    2874.6049     2924.207    25.647767  0.022885189  0.061735847  0.010053512 
  701000    262.83746     6749.616     2924.207    24.701562 -0.015639768 -0.0062630163 -0.027797517 
  702000    266.74195    12271.301     2924.207    23.385615 0.0073823134 -0.016971676 -0.012844275 
  703000    254.57687    12978.915     2924.207    24.139976 -0.0091571674  0.031303383 -0.026297304 
  704000    267.46337    7375.5015     2924.207    26.760031 -0.0034358251 0.0071507252  0.020240612 
  705000    256.25181    6194.0091     2924.207    29.624037  -0.01572538  -0.01911323 -0.021514477 
  706000    269.09036    14980.494     2924.207    30.612738 -0.017270758 -0.013396785   0.01005142 
  707000    274.61126    6270.5619     2924.207    29.637532 -0.015547389 -0.013501815  0.026570122 
  708000    271.79646    2627.7825     2924.207    26.137922 -0.024234534 -0.029921642  0.016965766 
  709000    268.34194    15564.033     2924.207      25.0759 -0.0072248468 -0.035852982  -0.03331251 
  710000    251.92043    3726.4612     2924.207      26.0756  0.014729807 -0.051653811 0.0069139138 
  711000     250.6323    11000.165     2924.207    27.388065 -0.035497365 -0.0031626611 -0.024869513 
  712000    276.71455    8419.7798     2924.207    29.861096 -0.030549363 -0.040664881   0.00125076 
  713000    277.95058    5686.6703     2924.207    32.099809 -0.016544114 0.0011862457 -0.036384617 
  714000    280.20882    8534.6268     2924.207    34.561653  0.012165436 0.0030948359 0.0063579152 
  715000    256.56147    9947.8725     2924.207    33.552561  0.001346465  0.036885741 0.0057019799 
  716000    257.63136    5732.5131     2924.207    31.232159 -0.011520736 0.0065440933 0.0045097667 
  717000    280.33195    6952.3072     2924.207    28.746979 0.0024534357 -0.0040965021 0.0057403201 
  718000    269.98802    7553.2046     2924.207    26.297821  0.032015352 -0.0098050348 0.0096739878 
  719000    267.38778    9722.2838     2924.207    24.370414 -0.024871638 -0.018218013 -0.020706166 
  720000    261.40539    9676.4691     2924.207     23.12092 0.0020962403 -0.00043110893  -0.02533286 
  721000    267.58053    11471.851     2924.207    21.099862  -0.01365314 -0.040618099  0.016574179 
  722000    268.09991    14353.489     2924.207    17.415687  0.028753961 -0.0088351676 0.0032429961 
  723000    274.99748     1920.191     2924.207    15.258615 -0.0062034704 -0.015924857 -0.0062655209 
  724000    259.05494    14525.424     2924.207    14.150571 -0.045183749 -0.012808893 -0.0094557862 
  725000    264.73979    11101.106     2924.207    14.424864 0.0076953177 -0.017744041 -0.0047525231 
  726000    267.53819    4559.2871     2924.207    17.397572  0.044535441 -0.012424158  0.014220096 
  727000    257.96102    10400.827     2924.207    22.551428  0.037568544  0.046846774 -0.010351466 
  728000    266.02847    8742.5397     2924.207    28.508478   0.01307365  0.020866952  0.021964971 
  729000    256.12727    17217.441     2924.207    33.064755  0.012963007 -0.023392034 0.0020096424 
  730000    265.89375    3413.9564     2924.207    34.633374 0.0017311525 0.0057134778 0.0035589271 
  731000    261.65004    4013.5691     2924.207    34.172811  0.026760652  0.023631044 0.0075115575 
  732000    264.98467    18651.875     2924.207    31.463102  0.018969415 -0.027961531 0.0054249091 
  733000    260.97909    12213.456     2924.207    27.352587 0.0055409682 -0.026055322 -0.029976199 
  734000    260.44375    4270.6962     2924.207    23.378397 0.0078050737 -0.0070279923 -0.014218097 
  735000    266.07593    6103.8115     2924.207    21.528251 -0.010607618 -0.016769676  0.005534657 
  736000     264.2003    9962.0175     2924.207    24.171926 0.0022726875 -0.025819651 -0.001496553 
  737000    249.06043    9047.2362     2924.207    31.121016  0.037363251   0.01609652 0.0036622748 
  738000    273.62288    9035.5844     2924.207    34.620716   0.02446877 -0.028542493 -0.0034151537 
  739000    264.39102    4249.9648     2924.207    32.958506  0.015304359 -0.043850205  0.010837523 
  740000    259.59832    6994.8396     2924.207      29.4162  0.017356587  0.013485182  0.012329515 
  741000    271.75926    8168.6548     2924.207    25.816315 -0.0074528481 0.0023482176 -0.021017927 
  742000    257.83691    11161.392     2924.207    24.723602 -0.015205982  0.036763868 0.0051240897 
  743000    250.34275    2673.5508     2924.207    25.298242 -0.00061248549 -0.0096239011 -0.018667211 
  744000    259.25249    9924.2015     2924.207    28.566563 0.0075374367 0.0020621815   0.01820969 
  745000    277.68133    2408.1324     2924.207    30.789731  0.027278357 -0.015928889 -0.022281252 
  746000    263.85893    13103.258     2924.207    29.290131  0.031992353 -0.010368428 0.0081012316 
  747000    273.69618    5053.7134     2924.207    28.021252 0.0045015507  0.020981037 -0.013596537 
  748000    250.84172    9249.1159     2924.207    26.383972 0.0093369045 -0.014306747  0.024680892 
  749000    257.60435    7928.9663     2924.207    25.826353   0.00802349 -0.0011423048 0.00075394644 
  750000    287.13448    12967.908     2924.207    25.800403 -0.015676318 -0.015802928 -0.010418375 
  751000    258.41088    8232.2121     2924.207    27.349582  0.017277728 -0.037812464 -0.002097525 
  752000    278.04971    3184.2082     2924.207    27.473682 -0.026554023 -0.024392908   0.03213256 
  753000    265.56514    8306.3569     2924.207    27.296215 -0.0045660493 -0.00095287219 -0.00063958563 
  754000    265.04966    12022.031     2924.207    28.364479 -0.041348131 -0.011768372 0.0059278393 
  755000    263.74871    1433.9591     2924.207    28.324542 -0.013965042  0.035018215   0.01142234 
  756000    258.82474    2492.5987     2924.207    26.041745 -0.0064035682  0.029649944 -0.026925499 
  757000    271.53315    15174.736     2924.207    22.600488  0.032570696  0.044778967 -0.0070337261 
  758000    258.11719     3665.221     2924.207    23.490216 -0.0057507286  0.014678099 0.0024145978 
  759000    265.87434    11595.554     2924.207    26.947792 -0.0049039573 -0.024392691 0.0035811371 
  760000    255.75444    10428.457     2924.207    30.857078 0.0053299502 -0.030506606 -0.0064737242 
  761000     246.6316   -4849.1678     2924.207    30.653255   -0.0456676 0.0053647003 0.0054831456 
  762000    262.38235    12944.197     2924.207    28.354208 -0.0062967926  0.023217313 -0.0068214384 
  763000    280.12513    9716.3933     2924.207     25.90774 -0.026851834  0.015545988 -0.021547607 
  764000    269.74584    565.40188     2924.207    24.585093 -0.0060034551  0.041835736 -0.0028272303 
  765000    272.87039    20236.631     2924.207    25.727026  0.019761945 -0.0010396391 -0.018112189 
  766000    264.31646    5795.3091     2924.207    26.627786 0.0043757976 -0.0078097776 -0.020942571 
  767000    246.73068    3016.9824     2924.207    27.133044 -0.024889605  0.014732487 0.0021978924 
  768000    256.28759    13131.125     2924.207    28.066858 0.0023659981  0.018842467 -0.044815536 
  769000      258.684     9853.487     2924.207    27.997418 -0.017074005  0.011597748 -0.026004101 
  770000    248.56912   -867.19074     2924.207    26.319076 0.0011836562  0.011117382 0.0064980025 
  771000    260.57065    8284.3407     2924.207    24.947466  0.035989771  0.037325968 -0.017597352 
  772000    251.53203    17763.605     2924.207    23.584987 -0.033732976 -0.017002837 -0.0088590382 
  773000    257.09318    2053.7407     2924.207    24.460234 -0.015975067 -0.029646289  0.026832299 
  774000    253.66912    6991.9821     2924.207    26.471855 -0.023542496 -0.0089058304 0.0071996621 
  775000    260.13275    20804.416     2924.207    31.032301 -0.031856228  -0.02322215 0.0065832571 
[...]
  813000    272.75347    6691.4905     2924.207    36.067452  0.032179415  0.013570915  0.002301962 
  814000    259.52206    10469.974     2924.207    36.010626  0.009298978 -0.030198112  0.031136658 
  815000    244.65366    2215.4395     2924.207    35.577994 -0.0069897458 -0.023267257  0.013458891 
  816000    254.04166     15328.41     2924.207    35.404134 -0.031141538 -0.018281367 0.0090651809 
  817000    258.97118     3581.631     2924.207    33.755822 0.0093060459 0.0019904805 -0.0094656577 
  818000    256.63142    11369.234     2924.207    29.646324 -0.026684714 -0.0026407779  0.032663521 
  819000     259.9152     8274.482     2924.207    27.495685 -0.011672193 -0.023672723 -0.001383531 
  820000    252.87971    10474.454     2924.207    28.116302 0.0046482708 -0.013807774 -0.044608513 
  821000     279.0679    8377.8569     2924.207    29.293192 0.0041938858 -0.032273659 0.0073706339 
  822000     256.9439    11553.782     2924.207    28.200975 -0.015923334 -0.0049014163 -0.017326426 
  823000    265.41104    3279.5541     2924.207     27.20707 -0.0072856709  0.031676493 -0.009855017 
  824000    243.96887    12748.245     2924.207    26.829135 -0.031462132 -0.0032441231 0.0017664514 
  825000    265.43843    7752.1949     2924.207    27.828214 -0.019196401  0.032875855 -0.036788757 
  826000    286.23258    5968.0233     2924.207     28.93034 -0.0018722765 -0.012799868 -0.0085345087 
  827000    259.12434    7494.1786     2924.207    28.713245 -0.0068096735 0.0025014767  0.012272468 
  828000    265.92673    2482.9014     2924.207    28.106894 -0.0016061976 0.0010709096  -0.04028718 
  829000      274.786    8571.6778     2924.207    28.315448 -0.015403938  0.019825034 -0.014327512 
  830000    266.24372    4931.9365     2924.207    28.985907 -0.029071762 -0.056818065  0.015373866 
  831000    271.40884    6041.2985     2924.207    30.037632 -0.025313756 -0.030352454  0.025779814 
  832000    268.19917     10637.57     2924.207    29.275253 0.0028575868 0.00069192105 0.0069623864 
  833000    274.98558    5276.2643     2924.207    28.984585 -0.0093577445 -0.009256647  0.040056845 
  834000    260.36279    2563.2487     2924.207    29.027671 -0.027293276  0.010256462  0.010214203 
  835000    281.85787    6374.4166     2924.207    28.968275  -0.01459397 0.0038063251   0.01082536 
  836000    274.05751    13633.308     2924.207    30.779805 0.0055925869 -0.046418207 -0.019709389 
  837000    273.12992    5832.5461     2924.207     31.90542 -0.00073419818 -0.040505069  0.019064158 
  838000    263.52533    8349.5501     2924.207    32.430172 -0.027273972 -0.028923908 0.0073625963 
  839000    259.75804    10832.396     2924.207      31.9891 -0.0011722166 -0.018678565  0.038164757 
  840000    281.17555    12529.332     2924.207    30.972908  0.017228249  0.036460509  0.019522196 
  841000    278.04991    4087.9884     2924.207    27.294585 0.0065840478 -0.020884173  0.019342581 
  842000    277.31834    4415.3601     2924.207    23.143298 0.0023831355 -0.012067062  0.010444582 
  843000    272.02221    13757.182     2924.207    23.471786  0.020264112  0.012253674  -0.04136289 
  844000    252.81964    10052.468     2924.207    24.101626 -0.013511585 0.0059317562 -0.002731585 
  845000    263.49193    6707.8211     2924.207    27.835157 -0.013626996 -0.0052126601  0.003442376 
  846000    252.18938    9557.8213     2924.207    31.254861  0.014270752 0.0026376329 0.0047553788 
  847000    269.76737    10743.368     2924.207    31.315193 -0.012300158  0.017977686  0.012863536 
  848000    247.59441    9137.5182     2924.207    26.753734 -0.024433152 -0.010240565  0.032349283 
  849000    252.48658   -1580.5286     2924.207    24.299604  0.017527826 -0.0053750677 -0.0042040562 
  850000    257.49492    11731.457     2924.207    25.070138 -0.010219113  0.020335292  0.032188035 
  851000    259.10342    12922.865     2924.207    27.288765  0.028620778 -0.030366032 -0.0076554883 
  852000    270.40048    5326.3372     2924.207    29.702836   0.05425744  0.038894084  0.014385555 
  853000    277.94899    10967.603     2924.207    29.323389 -0.032565388  0.032571329  0.023800809 
  854000    261.18189    6185.1059     2924.207    27.201245  0.028979514 -0.012292992  0.080753781 
  855000    243.57455     10383.09     2924.207     24.31463  0.012529461 0.0018969082  0.046853652 
  856000    260.86432    12438.748     2924.207    21.731413 -0.012966418 -0.0066027815 -0.011197998 
  857000    261.03262   -650.31343     2924.207     22.23941 -0.00030965673 -0.012560682 -0.017427389 
  858000    263.74654    8679.5168     2924.207    24.737801  -0.01780934   0.01092265 0.0062814328 
  859000    252.98523    14014.906     2924.207    27.625942  0.010446481 -0.025601558 0.0041369196 
  860000    244.95077    2480.4499     2924.207    29.701405 -0.012469645  0.022452883 -0.032366154 
  861000     258.8112    5268.3874     2924.207    31.240376  0.018707704  0.004560706 0.0035089013 
  862000    254.57069    14777.868     2924.207     32.71166 -0.0084385316 -0.0090787789  0.012466438 
  863000     256.0651    2323.0714     2924.207    31.033076 -0.019060748 -0.0093862783  0.029687139 
  864000    267.19433    4461.4287     2924.207    30.917386 -0.012530369  0.020842668 -0.034692482 
  865000     274.9457     9404.808     2924.207    31.625694 0.0066120417 -0.012101621   0.02073471 
  866000    269.74458    9400.0268     2924.207    31.116617  0.010343587 -0.029782671 -0.026380857 
  867000    277.06021    2265.0486     2924.207     31.11497 -0.0076840656 -0.0093846183  0.020423937 
  868000    263.21557     8600.287     2924.207    31.046374 -0.0069373052  0.010707726 0.0080907338 
  869000    258.26169    15159.688     2924.207    31.599516 0.0046569923 -0.035742591 -0.022038756 
  870000    268.97861    3402.0689     2924.207    31.293203  0.017016971  0.018204447 -0.028022144 
  871000    253.64847    15180.908     2924.207    29.672952 -0.0067803447 0.0043360903 0.0048928101 
  872000     254.4231    8741.0457     2924.207    29.505121  0.011357066 -0.043130876 -0.0045333314 
  873000    247.38912    5441.8536     2924.207    27.517464 -0.0091815353  0.025042145 -0.0056716713 
  874000    270.74728    6629.8051     2924.207    23.205217 0.0048975808 0.0071323494  0.013464409 
  875000    259.97491    17252.568     2924.207    21.163711 0.0031069551   0.01101778  0.019080206 
  876000    270.05459    3240.1235     2924.207    18.550993  0.007102763  0.010006603 -0.0045973007 
  877000    261.59426    11572.228     2924.207    18.942529 0.0056795365  0.016620299  0.024209172 
  878000    250.61497     10250.46     2924.207    20.518109 -0.007574762 -0.012160815  0.015424945 
  879000    274.16276   -2157.7759     2924.207    20.936966 -0.017818807 -0.011339344 -0.025464091 
  880000    275.87977    3146.6917     2924.207    21.692133 0.0063092965 -0.023748925 -0.0023262093 
  881000    241.96959    11486.013     2924.207    22.032461  0.034868827 0.0095019276  -0.05798811 
  882000    267.43861    9488.3644     2924.207    24.052215 -0.037224113 0.0043606086  0.023455231 
  883000    253.47903    4855.6887     2924.207    25.796788 -0.019751625 -0.035827856    0.0138488 
  884000    258.42719    6203.4055     2924.207    26.828621  -0.03538833  0.036060066  -0.03844557 
  885000    257.36612    11672.111     2924.207    29.376124 0.00096077528  0.029250544  0.053963614 
  886000    253.56443   -158.79918     2924.207    29.824531 0.0071366941 0.0031269938 -0.001232573 
  887000    261.28494     11781.21     2924.207    28.116472 0.0071543466 -0.0080662955  0.028355322 
  888000    261.39018    5594.5439     2924.207    25.817273  0.032044144 -0.014840062 -0.0044493144 
  889000    284.43825    2741.8841     2924.207    23.715527 -0.010881828 -0.021484659 -0.011543745 
  890000    266.91495    11816.307     2924.207    21.322083 -0.0018583606  0.028393319 -0.048825953 
  891000    265.51905    3257.5547     2924.207    20.068589 0.0097891158 -0.0087324446 -0.010713598 
  892000     262.8343    7435.0112     2924.207    21.014924  0.023977037  0.018781509 0.0079942494 
  893000     273.2851    7193.0337     2924.207    23.385199  0.027019537 0.0042329562 -0.016144189 
  894000    256.39664    356.43691     2924.207    25.870211  0.013181317  0.033664972 -0.026493945 
  895000    267.40443    15059.924     2924.207    26.055747 -0.0026737864 -0.0076758849 -0.028818467 
  896000    273.63528    9097.4241     2924.207    26.982054 -0.037795943 0.0078760771 -0.011355085 
  897000    265.16474   -226.85269     2924.207    27.281235  0.037255367 -0.010808673   0.01202861 
  898000    261.91008    11245.063     2924.207    28.490707 -0.0070940315 -0.0071574618  0.014642323 
  899000    267.98297    9978.2221     2924.207    30.893277 0.0087572995 -0.006731458 -0.011634852 
  900000    255.54893    3984.0914     2924.207    33.833802 -0.0039436382 0.0096044927 -0.015615648 
  901000    269.67448    7426.0306     2924.207    34.283614 -0.012163719 -0.037738365 -0.0037175959 
  902000    252.71771    11202.602     2924.207     32.62731 -0.013992022  0.021173302  0.018507254 
  903000     276.7307    4553.2569     2924.207    28.916078 0.0097933892 -0.036027772 -0.018894525 
  904000    264.86261    14659.977     2924.207    25.764496  0.019712414 -0.0024160717   0.02848223 
  905000    260.56531    6269.8976     2924.207    24.413026 -0.0063077149 -0.026269566 -0.025990352 
  906000    264.74196    4699.4684     2924.207    25.408284 -0.014204166 -0.033609193 -0.024365375 
  907000    244.98092    8306.3389     2924.207    26.601388 -0.021961948 -0.0057838665 -0.013406188 
  908000    260.53222    4444.5653     2924.207    27.908947 -0.0011222835 0.0086402238  -0.01217633 
  909000    266.18799    9264.4078     2924.207     28.42264 -0.034692853  0.012213208  -0.03943956 
  910000    276.31112    14636.889     2924.207    28.607232 -0.0086075332 -0.00037501833  -0.01257379 
  911000    269.81889   -3019.5012     2924.207    28.049166 -0.0062999123  0.023155882 -0.021837524 
  912000    257.83305    10421.466     2924.207    27.501631 0.0091554629 -0.010883468 0.0037881501 
  913000    268.01023    6750.5555     2924.207    28.182263 -0.006129989  0.014319371 -0.0022317904 
  914000    246.28071    190.90862     2924.207    28.737635  0.035870399 -0.0040675829 -0.055582177 
  915000    254.00519    11923.981     2924.207    29.569629 -0.00022218003 0.0034733852 -0.021521766 
  916000    263.81284    11750.653     2924.207    30.019839  0.031993589 -0.012013086 0.0027587857 
  917000    278.56031    7350.4811     2924.207     29.60496 -0.033055525  0.015725108 -0.018247601 
  918000    274.16009    9050.9896     2924.207    28.963235 -0.010523667 -0.00026981634 -0.017317278 
  919000    251.61039    10372.233     2924.207    27.962474  -0.01435072 -0.038700417 -0.014363625 
  920000    272.84215    10417.069     2924.207    24.748239 -0.034799719  0.010221545  0.012032326 
  921000    255.44961    5336.1928     2924.207    22.013573  -0.01485602 -0.021878777 -0.0082896322 
  922000    264.39674    5968.6766     2924.207    20.028008  0.041024975 -0.035564927 -0.0050308226 
  923000    240.97404    13417.023     2924.207    20.254987  0.041831166  -0.03394581  0.010061855 
  924000    246.44362    8480.5295     2924.207    22.202877  0.013698939 0.0091536947  0.027507874 
  925000    255.22621    9923.1576     2924.207    26.089897  0.014195769  0.021358433 -0.015876375 
  926000    271.86396    1549.3799     2924.207    27.786413 0.0043121493  0.020228587  0.001629565 
  927000    266.08445    8709.8936     2924.207     26.78255 -0.022578383  0.024839095 0.0039457184 
  928000    255.69345    11753.715     2924.207     25.00281  0.004646889  0.015184827 -0.014476378 
  929000    252.76293    7949.3371     2924.207    24.396873  0.007554078 -0.033057408 -0.0078259605 
  930000    258.89938    5475.9377     2924.207    26.510792 -0.023507535 -0.018731103  -0.01611325 
  931000    273.46331    5280.1277     2924.207    29.251634 0.0021609909  0.017801418 -0.017548271 
  932000    264.72647     13294.76     2924.207    29.210794  0.044450383  0.029211079 0.0047384058 
  933000    255.71307    10003.954     2924.207    29.014219  0.022269038 -0.016939415 -0.0014496354 
  934000     270.5225    3792.4909     2924.207     30.88239 -0.026503163 -0.039182425  0.040659961 
  935000    266.18314    12766.209     2924.207    31.588743 -0.00040751034  0.010980274  0.014989613 
  936000     269.8481     836.5185     2924.207    30.598913 -0.015282532 0.0039349319 -0.012132714 
  937000     259.9833    5844.8075     2924.207    28.727856 -0.0022841713 -0.011988819 -0.013397133 
  938000    262.38585    15545.688     2924.207    28.215922 -0.014223492  -0.03160703  0.034137965 
  939000    270.45003    3204.4708     2924.207    28.811496 -0.027027509  0.022881283 -0.028097462 
  940000    261.23466    3846.1757     2924.207    29.678208  0.018175115 -0.012707607 -0.0026327083 
  941000    279.33303    16414.588     2924.207    30.241997 -0.016537442  0.024876896 -0.0035701946 
  942000    255.56671    3344.1351     2924.207    29.487996 -0.019747958 -0.00043252185 0.0056721368 
  943000     265.4997    4968.4431     2924.207    28.188652 0.0091424446 -0.025642699  -0.00691614 
  944000    272.75234    9089.9814     2924.207    29.706999  0.031830722 -0.031704893 -0.020259349 
  945000    250.15594    5041.7001     2924.207    31.919213 -0.011572627 -0.0026323112 -0.0040183751 
  946000    268.61345    8547.4983     2924.207    34.043578 -0.037921629 0.0049576358 0.0027040526 
  947000    257.52367    4642.8971     2924.207    35.023643 0.0021134562 0.0041714041 -0.0034570114 
  948000    242.37053    9039.8866     2924.207    34.030978  0.018662707 -0.0015760292 -0.012178151 
  949000    269.23448    4886.9156     2924.207    31.858088   0.00504904  0.042188408  0.014971176 
  950000    263.75626    1463.9932     2924.207    31.058476  0.023237451 -0.0004151715  0.020004272 
  951000     246.1936    4699.6829     2924.207     30.77099 -0.024863232  0.026677678  -0.03150526 
  952000    278.92186    8946.1452     2924.207    31.075845  0.032892384  0.012095504  -0.01096723 
  953000    266.09482    4416.8175     2924.207    32.067951 -0.014090977  0.013407729 -0.022708509 
  954000    270.70112    5958.0376     2924.207    32.183504 -0.00087522131  0.019449834 -0.0036552633 
  955000    263.27367    12743.215     2924.207    32.751234 -0.017145185 -0.0036292181 -0.028146039 
  956000    264.34693    3100.0503     2924.207    32.580584 -0.020828197 -0.0054817151  -0.00033995 
  957000    267.93577     7188.707     2924.207    30.594971 -0.023765168  0.025028687  0.013128342 
  958000    265.97436    10542.147     2924.207    31.485369  0.002089371   0.03511176 -0.0043878115 
  959000    258.32935    3819.2716     2924.207    33.636851 -0.0012547071 0.00078669143  0.013108935 
  960000    251.83491    12278.766     2924.207    33.803621 -0.0091157904  0.011911407 -0.0095345414 
  961000    273.02287    9366.0527     2924.207    30.635312  0.016066094 0.0086648309 -0.0030583476 
  962000    258.95886    7662.4258     2924.207    29.011711 -0.029376241 -0.020170919 -0.028104084 
  963000      271.656    5607.1528     2924.207    29.628881  0.026400041  -0.01384805  0.033029147 
  964000    266.73983    16792.803     2924.207    31.171498 -0.014823216  0.006918463 -0.0047998319 
  965000    276.88608    9180.5072     2924.207    33.343429 -0.010798304 0.0090245498   0.01811703 
  966000    267.64701    4198.4685     2924.207    33.674944 -0.012756969 0.00076142229 0.0048764819 
  967000    243.77016    8809.4528     2924.207     33.37189 0.0047214792 -0.0076269414  0.022653754 
  968000    267.67262    4047.4784     2924.207     34.01728  0.024455051  0.034452727 -0.020135065 
  969000    277.78214    1455.2386     2924.207    34.226456 0.0027715728  0.007654385 -0.0085975395 
  970000    279.05404    11014.646     2924.207     32.54372  0.028852296  0.003132476  0.024300467 
  971000    261.73863    12291.761     2924.207    29.238069 -0.0014943961 -0.023959637  0.018315398 
  972000    272.63807   -2403.5564     2924.207    27.827571 -0.015480148 -0.017079074  0.017065598 
  973000    258.66933    11937.882     2924.207    27.334458  0.012738062 -0.0094397149 0.0078995061 
  974000    264.61719    8259.7954     2924.207     24.83632 -0.005229124  0.049397023 -0.0022866026 
  975000    253.59448    3662.6291     2924.207    23.766045 -0.015916528 -0.016183289 -0.021075286 
  976000    257.87355    8452.4981     2924.207    23.572938 -0.0076548292 0.0066380406  0.018299043 
  977000      249.263    6515.0918     2924.207    25.099696  0.002470169 -0.00055369163 -0.019535048 
  978000    272.00095    9147.6884     2924.207    26.759075  0.025114989  0.035895127  0.010472975 
  979000    264.52976     4202.008     2924.207    28.422966  0.019044992 0.0085944413  0.016153935 
  980000    258.16802    6963.1233     2924.207    29.771111   0.01995738 0.0051934471 -0.0054253678 
  981000    263.97012    12662.174     2924.207    29.015024  0.055589104  0.021680946  -0.02754772 
  982000    244.76636     4424.436     2924.207    27.399302 0.0011731709 0.0023350229 -0.025920176 
  983000    254.30585    9404.0942     2924.207    26.815671  -0.02588137 -0.0077420776 -0.031215895 
  984000     257.9417    13245.107     2924.207    26.938307 -0.027076056 0.0065910681   0.02214978 
  985000    255.66758    741.07191     2924.207    28.629498 -0.0068950393  0.015145175 0.0029600991 
  986000    265.80876    2784.7295     2924.207     28.91377  0.010301126  0.047016464  0.018839475 
  987000    270.17354    7209.0456     2924.207    27.930771 -0.054961992 -0.016138237 -0.014077103 
  988000    267.07034    10631.125     2924.207    29.271207 0.0087236094 -0.0070546248  0.014286046 
  989000    273.33961    9502.2164     2924.207    31.659738 -0.058504258 0.0065247477 -0.012949146 
  990000     268.7231    3494.1444     2924.207     33.50038 -0.026342785  0.027442551 -0.012157955 
  991000    275.53717    14187.151     2924.207    34.101143 0.0097422106  0.025763658  0.012034504 
  992000    264.64843    4713.6765     2924.207    33.813725 -0.0063634632  0.013752949  0.023169021 
  993000    281.67044    7557.2736     2924.207    32.444522  -0.01207427 -0.011370467 -0.0036038771 
  994000    272.22324    9136.3134     2924.207    30.022708   0.02524007  0.012867355 -0.018626742 
  995000     269.1939    5362.6436     2924.207    28.008749  0.020899981  0.013223297   0.01048479 
  996000    252.37306    4564.6005     2924.207    26.740792  0.018224969 -0.017478985 0.0062403986 
  997000    269.07842    6366.0811     2924.207    26.184623  0.001612042 -0.027326761  0.025902148 
  998000    264.07935     9954.167     2924.207    26.384071  0.032097063 -0.013315582 -0.0081310331 
  999000    272.15733    6529.9445     2924.207    28.306798 -0.0030163885  0.024651501 -0.018646205 
 1000000    266.01364    7956.8621     2924.207    31.341969  0.017306413  0.014962191  0.026440502 
Loop time of 11402.5 on 2 procs for 1000000 steps with 240 atoms

Pair  time (%) = 9232.58 (80.9698)
Bond  time (%) = 0.419779 (0.00368146)
Neigh time (%) = 30.5616 (0.268026)
Comm  time (%) = 2012.57 (17.6502)
Outpt time (%) = 0.641813 (0.00562871)
Other time (%) = 125.727 (1.10263)

Nlocal:    120 ave 122 max 118 min
Histogram: 1 0 0 0 0 0 0 0 0 1
Nghost:    5044.5 ave 5053 max 5036 min
Histogram: 1 0 0 0 0 0 0 0 0 1
Neighs:    45546 ave 46421 max 44671 min
Histogram: 1 0 0 0 0 0 0 0 0 1
FullNghs:  91092 ave 92596 max 89588 min
Histogram: 1 0 0 0 0 0 0 0 0 1

Total # of neighbors = 182184
Ave neighs/atom = 759.1
Ave special neighs/atom = 0
Neighbor list builds = 5175
Dangerous builds = 0
#	run			10000
	unfix			1
	uncompute		myKE
	uncompute		myPE
	uncompute		myStress
	uncompute		flux
	uncompute		myDis
	unfix			JJ

	next seed
	next iseed
jump lmp.in.gk loop_seed
