
#--------------------------------------------------------------------------
#nve rescale
#--------------------------------------------------------------------------
	velocity 		all create ${T_run} ${seed} rot yes dist gaussian
	velocity 		all create 300 ${seed} rot yes dist gaussian
	velocity 		all create 300 33333 rot yes dist gaussian

	fix 			1 all nve
	fix 			2 all temp/rescale 1 ${T_run} ${T_run} 0.01 1.0
	fix 			2 all temp/rescale 1 300 ${T_run} 0.01 1.0
	fix 			2 all temp/rescale 1 300 300 0.01 1.0
	timestep		${dt}
	timestep		0.0010000000000000000208
	thermo_style  		custom step temp press etotal vol
	thermo			1000
	run             	100000
Memory usage per processor = 4.35585 Mbytes
Step Temp Press TotEng Volume 
       0          300    177883.56   -1574.5439     2924.207 
    1000          300   -5163.9428   -1595.6693     2924.207 
    2000          300    12922.266   -1597.2959     2924.207 
    3000          300    16912.377   -1597.6672     2924.207 
    4000          300    20301.634   -1597.5078     2924.207 
    5000          300   -5471.0605   -1597.6244     2924.207 
    6000          300   -11946.718   -1596.8316     2924.207 
    7000          300   -11166.496   -1597.3513     2924.207 
    8000          300    1387.4274   -1597.9841     2924.207 
    9000          300    11892.818   -1598.0414     2924.207 
   10000          300    13583.981   -1597.5331     2924.207 
   11000          300    1868.6807   -1597.9864     2924.207 
   12000          300   -6945.1451   -1597.1177     2924.207 
   13000          300   -1545.4076   -1597.3093     2924.207 
   14000          300    15254.187    -1598.703     2924.207 
   15000          300    13850.692    -1597.683     2924.207 
   16000          300    1274.1983   -1597.4414     2924.207 
   17000          300   -1002.1446   -1597.0226     2924.207 
   18000          300   -317.45943   -1597.8063     2924.207 
   19000          300    16138.665   -1598.3709     2924.207 
   20000          300    8002.3732   -1597.7063     2924.207 
   21000          300   -5214.5442   -1597.9734     2924.207 
   22000          300   -868.36847   -1597.4317     2924.207 
   23000          300    17717.061   -1597.6895     2924.207 
   24000          300    17703.499   -1597.7908     2924.207 
   25000          300   -2870.2866   -1597.2662     2924.207 
   26000          300    -5768.368   -1597.3566     2924.207 
   27000          300    18631.458   -1597.4617     2924.207 
   28000          300    16927.576   -1597.7064     2924.207 
   29000          300    3235.5917   -1598.0721     2924.207 
   30000          300    -1632.713   -1597.5497     2924.207 
   31000          300     2757.652   -1597.8083     2924.207 
   32000          300     16979.08   -1597.7099     2924.207 
   33000          300    10231.421   -1597.9448     2924.207 
   34000          300   -922.42289   -1597.7184     2924.207 
   35000          300    3703.5061   -1597.9404     2924.207 
   36000          300    11068.072   -1597.8241     2924.207 
   37000          300    14719.165    -1597.537     2924.207 
   38000          300     2268.974    -1597.649     2924.207 
   39000          300    -2621.478   -1598.3669     2924.207 
   40000          300    13855.405   -1597.7353     2924.207 
   41000          300    7321.3819   -1598.1769     2924.207 
   42000          300    6204.6969   -1597.6641     2924.207 
   43000          300    11345.277   -1597.9617     2924.207 
   44000          300    6355.7445   -1597.4061     2924.207 
   45000          300    6692.0314   -1596.6952     2924.207 
   46000          300    11146.788   -1596.8171     2924.207 
   47000          300    9543.7099   -1597.6974     2924.207 
   48000          300    5380.1764    -1597.899     2924.207 
   49000          300    4839.9304   -1598.3286     2924.207 
   50000          300     10544.15   -1598.8255     2924.207 
   51000          300    12135.793   -1597.9719     2924.207 
   52000          300    93.460775   -1598.0199     2924.207 
   53000          300    16191.015    -1597.244     2924.207 
   54000          300    10368.739   -1597.7357     2924.207 
   55000          300    8147.6983    -1597.997     2924.207 
   56000          300    9647.0936   -1597.5771     2924.207 
   57000          300    11182.235   -1597.7596     2924.207 
   58000          300    12139.284   -1598.1029     2924.207 
   59000          300    11982.486   -1598.4821     2924.207 
   60000          300    11360.382   -1596.7699     2924.207 
   61000          300    7745.5113   -1598.1348     2924.207 
   62000          300    14332.621   -1598.2874     2924.207 
   63000          300    7254.8427   -1597.8154     2924.207 
   64000          300    11409.479    -1598.583     2924.207 
   65000          300    13023.326   -1597.6948     2924.207 
   66000          300    6136.4184    -1598.774     2924.207 
   67000          300    13790.355   -1598.0736     2924.207 
   68000          300    6965.8573   -1598.7045     2924.207 
   69000          300    17429.727     -1597.62     2924.207 
   70000          300    8237.8928   -1598.9947     2924.207 
   71000          300    5754.2559   -1597.9083     2924.207 
   72000          300    14371.426   -1597.6228     2924.207 
   73000          300     9600.935   -1599.3886     2924.207 
   74000          300     8154.896   -1598.6759     2924.207 
   75000          300    13555.424   -1597.9902     2924.207 
   76000          300    11655.408   -1598.7155     2924.207 
   77000          300    13457.127    -1597.952     2924.207 
   78000          300    17789.099   -1598.6775     2924.207 
   79000          300    18238.961    -1598.779     2924.207 
   80000          300    14415.838   -1597.1537     2924.207 
   81000          300    14048.714   -1599.6812     2924.207 
   82000          300   -2920.9566    -1599.399     2924.207 
   83000          300    21960.336   -1598.4023     2924.207 
   84000          300    12757.885   -1598.6597     2924.207 
   85000          300    21836.514   -1598.1766     2924.207 
   86000          300    12998.384   -1599.8601     2924.207 
   87000          300    15545.376   -1598.6283     2924.207 
   88000          300    20823.608   -1597.7374     2924.207 
   89000          300    12170.211    -1598.706     2924.207 
   90000          300    18484.872   -1597.9556     2924.207 
   91000          300    16985.246     -1599.63     2924.207 
   92000          300    6711.7945   -1599.6396     2924.207 
   93000          300    27268.739   -1598.3732     2924.207 
   94000          300    6563.3341   -1600.8393     2924.207 
   95000          300    23706.255   -1598.7869     2924.207 
   96000          300    11255.081    -1598.609     2924.207 
   97000          300    14245.049   -1600.5767     2924.207 
   98000          300    13153.572   -1600.0191     2924.207 
   99000          300     7724.294   -1600.5334     2924.207 
  100000          300    12672.087   -1601.1638     2924.207 
Loop time of 649.776 on 2 procs for 100000 steps with 240 atoms

Pair  time (%) = 623.608 (95.9728)
Bond  time (%) = 0.0242231 (0.00372792)
Neigh time (%) = 1.84195 (0.283475)
Comm  time (%) = 22.6644 (3.48804)
Outpt time (%) = 0.00286055 (0.000440236)
Other time (%) = 1.6345 (0.251548)

Nlocal:    120 ave 122 max 118 min
Histogram: 1 0 0 0 0 0 0 0 0 1
Nghost:    5047 ave 5088 max 5006 min
Histogram: 1 0 0 0 0 0 0 0 0 1
Neighs:    45560 ave 45993 max 45127 min
Histogram: 1 0 0 0 0 0 0 0 0 1
FullNghs:  91120 ave 92093 max 90147 min
Histogram: 1 0 0 0 0 0 0 0 0 1

Total # of neighbors = 182240
Ave neighs/atom = 759.333
Ave special neighs/atom = 0
Neighbor list builds = 429
Dangerous builds = 0
#	run             	1000
	unfix 			1
	unfix 			2
#--------------------------------------------------------------------------
#nve
#--------------------------------------------------------------------------
	fix 			1 all nve
	timestep		${dt}
	timestep		0.0010000000000000000208
	thermo_style  		custom step temp press etotal vol
	thermo			1000
	run             	100000
Memory usage per processor = 4.81552 Mbytes
Step Temp Press TotEng Volume 
  100000          300    12672.087   -1601.1638     2924.207 
  101000    257.79636     17489.31   -1601.1636     2924.207 
  102000    301.62964    6274.1368   -1601.1598     2924.207 
  103000    254.68875    24522.365   -1601.1616     2924.207 
  104000    234.61251    10567.183   -1601.1625     2924.207 
  105000    293.29887    10178.356   -1601.1703     2924.207 
  106000    268.49352    15077.584   -1601.1594     2924.207 
  107000    281.19403    15188.909    -1601.169     2924.207 
  108000     274.3263    13774.812   -1601.1624     2924.207 
  109000    280.45556    8431.1224   -1601.1624     2924.207 
  110000    261.60664    15200.648   -1601.1618     2924.207 
  111000     263.4211    15297.572   -1601.1645     2924.207 
  112000    284.08722    12675.157   -1601.1703     2924.207 
  113000    268.87248    16862.402   -1601.1625     2924.207 
  114000     256.9817    9583.7005   -1601.1612     2924.207 
  115000    273.38107     17255.77   -1601.1654     2924.207 
  116000    284.81477     7916.071   -1601.1644     2924.207 
  117000    260.69329    12882.037   -1601.1639     2924.207 
  118000    262.80259    18356.454   -1601.1591     2924.207 
  119000    284.84846    13063.352   -1601.1698     2924.207 
  120000    272.95471    16685.809   -1601.1669     2924.207 
  121000    276.48563     15848.45   -1601.1586     2924.207 
  122000     266.5547    1662.0507   -1601.1664     2924.207 
  123000    259.07443    21320.469   -1601.1632     2924.207 
  124000    253.31368    11375.763    -1601.158     2924.207 
  125000    273.32065    21014.733   -1601.1667     2924.207 
  126000     235.7722     16008.85   -1601.1621     2924.207 
  127000    244.05596    17992.612   -1601.1694     2924.207 
  128000    277.95081     16635.23   -1601.1711     2924.207 
  129000     257.6301    9253.0424   -1601.1666     2924.207 
  130000    270.02275    23418.596   -1601.1668     2924.207 
  131000    277.71185    6948.2487   -1601.1653     2924.207 
  132000    256.95066    16048.168   -1601.1617     2924.207 
  133000    267.85354    5222.4947   -1601.1613     2924.207 
  134000    277.60644    14900.916   -1601.1609     2924.207 
  135000    258.98959    15999.875     -1601.16     2924.207 
  136000    269.60551    9697.7763   -1601.1623     2924.207 
  137000    278.87931    7333.1526   -1601.1591     2924.207 
  138000    248.11261    23763.426   -1601.1666     2924.207 
  139000    275.50667    12577.539   -1601.1611     2924.207 
  140000    292.31003    12631.077   -1601.1638     2924.207 
  141000    288.48577    7761.3557   -1601.1653     2924.207 
  142000    269.92426    15055.953   -1601.1605     2924.207 
  143000    268.25681    9849.1994   -1601.1626     2924.207 
  144000    242.95017    23316.578   -1601.1622     2924.207 
  145000    278.72371    5379.4244   -1601.1653     2924.207 
  146000    255.93459    17986.402   -1601.1656     2924.207 
  147000    254.60533    11979.822    -1601.164     2924.207 
  148000    258.44415    23153.179   -1601.1637     2924.207 
  149000    274.46639    10327.164   -1601.1623     2924.207 
  150000    260.70164    9515.5303   -1601.1627     2924.207 
  151000    268.19907     15638.19   -1601.1589     2924.207 
  152000    234.46197    12754.907   -1601.1599     2924.207 
  153000    291.13568    11344.776   -1601.1691     2924.207 
  154000    242.58051    21873.338   -1601.1647     2924.207 
  155000    272.36786    8865.7335    -1601.156     2924.207 
  156000    252.90008     16575.83   -1601.1653     2924.207 
  157000    264.23719    19205.473   -1601.1625     2924.207 
  158000     261.3219     6080.049   -1601.1587     2924.207 
  159000    262.58651    16706.718   -1601.1627     2924.207 
  160000    259.60241    19780.203   -1601.1622     2924.207 
  161000    199.85513    20152.663   -1601.1557     2924.207 
  162000    271.67206    8757.6713   -1601.1609     2924.207 
  163000     233.4617    20141.665   -1601.1622     2924.207 
  164000    263.52264    16666.899   -1601.1623     2924.207 
  165000     272.3256    19356.385   -1601.1711     2924.207 
  166000    248.86372    13424.819   -1601.1662     2924.207 
  167000     252.5037    16435.428   -1601.1635     2924.207 
  168000    259.01914     18227.39   -1601.1692     2924.207 
  169000    245.81084     10212.69   -1601.1593     2924.207 
  170000    230.20583     24387.52    -1601.164     2924.207 
  171000    257.78344     7177.522   -1601.1588     2924.207 
  172000    241.35798     23996.51   -1601.1652     2924.207 
  173000    276.59209    9084.9849   -1601.1652     2924.207 
  174000    238.44647    26524.979   -1601.1694     2924.207 
  175000    283.31204    2439.8542   -1601.1605     2924.207 
  176000    260.13795    20758.851   -1601.1684     2924.207 
  177000     249.0609    14120.364   -1601.1652     2924.207 
  178000    264.48119    13992.909   -1601.1663     2924.207 
  179000    239.28911    20442.631   -1601.1695     2924.207 
  180000    272.34032    13579.157   -1601.1623     2924.207 
  181000     260.3048    14429.431   -1601.1649     2924.207 
  182000    236.18985    18675.201   -1601.1631     2924.207 
  183000    292.81524    11582.577   -1601.1656     2924.207 
  184000    259.83709    14427.941    -1601.163     2924.207 
  185000    239.99838     20057.54   -1601.1645     2924.207 
  186000    271.40653    11488.439   -1601.1691     2924.207 
  187000    263.86133    11347.811   -1601.1684     2924.207 
  188000    276.89456    13851.295   -1601.1616     2924.207 
  189000     251.2254    14526.185    -1601.166     2924.207 
  190000    277.82445     9318.665   -1601.1667     2924.207 
  191000    285.06531    10210.363   -1601.1606     2924.207 
  192000    256.00648    11110.426   -1601.1639     2924.207 
  193000    297.00825    15102.851   -1601.1691     2924.207 
  194000    240.72925    12602.248    -1601.167     2924.207 
  195000    268.40293    12341.093   -1601.1624     2924.207 
  196000    269.69312     13313.15   -1601.1605     2924.207 
  197000    241.52201    16754.829   -1601.1608     2924.207 
  198000     270.2109    13286.718   -1601.1628     2924.207 
  199000    262.60787    16203.872   -1601.1585     2924.207 
  200000    267.78302    15502.193   -1601.1707     2924.207 
Loop time of 664.829 on 2 procs for 100000 steps with 240 atoms

Pair  time (%) = 633.845 (95.3396)
Bond  time (%) = 0.0257715 (0.00387641)
Neigh time (%) = 3.32399 (0.499977)
Comm  time (%) = 26.2839 (3.95348)
Outpt time (%) = 0.00314939 (0.000473715)
Other time (%) = 1.34694 (0.2026)

Nlocal:    120 ave 126 max 114 min
Histogram: 1 0 0 0 0 0 0 0 0 1
Nghost:    5016 ave 5043 max 4989 min
Histogram: 1 0 0 0 0 0 0 0 0 1
Neighs:    45533.5 ave 47426 max 43641 min
Histogram: 1 0 0 0 0 0 0 0 0 1
FullNghs:  91067 ave 94994 max 87140 min
Histogram: 1 0 0 0 0 0 0 0 0 1

Total # of neighbors = 182134
Ave neighs/atom = 758.892
Ave special neighs/atom = 0
Neighbor list builds = 762
Dangerous builds = 0
#	run             	10000
	unfix 			1
#--------------------------------------------------------------------------
#kappa
#--------------------------------------------------------------------------
log 	log_kappa_${iseed}.lammps
log 	log_kappa_3.lammps
