
#--------------------------------------------------------------------------
#nve rescale
#--------------------------------------------------------------------------
	velocity 		all create ${T_run} ${seed} rot yes dist gaussian
	velocity 		all create 300 ${seed} rot yes dist gaussian
	velocity 		all create 300 11110 rot yes dist gaussian

	fix 			1 all nve
	fix 			2 all temp/rescale 1 ${T_run} ${T_run} 0.01 1.0
	fix 			2 all temp/rescale 1 300 ${T_run} 0.01 1.0
	fix 			2 all temp/rescale 1 300 300 0.01 1.0
	timestep		${dt}
	timestep		0.0010000000000000000208
	thermo_style  		custom step temp press etotal vol
	thermo			1000
	run             	100000
Memory usage per processor = 4.35585 Mbytes
Step Temp Press TotEng Volume 
       0          300    177883.56   -1574.5439     2924.207 
    1000          300   -4180.2905   -1594.8854     2924.207 
    2000          300    3178.4671   -1598.0973     2924.207 
    3000          300    18159.828   -1597.6976     2924.207 
    4000          300    29978.424   -1597.9347     2924.207 
    5000          300    1769.1971   -1597.9034     2924.207 
    6000          300   -7114.9885   -1597.3147     2924.207 
    7000          300     -15428.9      -1597.1     2924.207 
    8000          300   -8240.8298   -1596.9579     2924.207 
    9000          300    15707.084   -1597.5317     2924.207 
   10000          300    22107.163   -1597.7268     2924.207 
   11000          300    2163.2155   -1597.8737     2924.207 
   12000          300   -3441.7625   -1597.2867     2924.207 
   13000          300   -6119.8454   -1596.9881     2924.207 
   14000          300   -802.62003   -1597.5565     2924.207 
   15000          300    15943.519   -1598.1674     2924.207 
   16000          300    10924.548   -1597.4812     2924.207 
   17000          300    5012.8932   -1597.3244     2924.207 
   18000          300   -5753.5099   -1597.2171     2924.207 
   19000          300   -1696.4268   -1597.4219     2924.207 
   20000          300    4735.9114    -1597.279     2924.207 
   21000          300    16749.828   -1597.4803     2924.207 
   22000          300    8876.9453   -1597.7042     2924.207 
   23000          300    1613.9284   -1597.5109     2924.207 
   24000          300   -7069.6422   -1597.2239     2924.207 
   25000          300    10469.096   -1597.3851     2924.207 
   26000          300    16723.746   -1597.6511     2924.207 
   27000          300    6145.2984   -1597.8087     2924.207 
   28000          300   -4929.8587   -1597.7292     2924.207 
   29000          300    15868.554   -1597.5999     2924.207 
   30000          300    15411.086   -1597.3533     2924.207 
   31000          300   -4118.9856   -1597.7715     2924.207 
   32000          300    14060.077    -1597.981     2924.207 
   33000          300    12338.044   -1597.7718     2924.207 
   34000          300    1118.3029   -1597.8294     2924.207 
   35000          300    5252.1544   -1597.6625     2924.207 
   36000          300    6952.5736    -1597.615     2924.207 
   37000          300    15598.109   -1597.9413     2924.207 
   38000          300    1551.1932   -1596.9335     2924.207 
   39000          300    7324.2561   -1597.9819     2924.207 
   40000          300    14006.202   -1597.9348     2924.207 
   41000          300    4830.7258   -1597.1759     2924.207 
   42000          300    5639.6163    -1598.011     2924.207 
   43000          300     14610.61   -1597.8123     2924.207 
   44000          300    3318.5459   -1597.6193     2924.207 
   45000          300    11901.435   -1597.2168     2924.207 
   46000          300     11660.67   -1597.5753     2924.207 
   47000          300    11335.856    -1598.183     2924.207 
   48000          300     2243.668   -1596.9444     2924.207 
   49000          300    15362.919   -1597.6945     2924.207 
   50000          300     12125.08   -1597.4585     2924.207 
   51000          300    7836.5475   -1598.7122     2924.207 
   52000          300    9688.9606   -1597.1406     2924.207 
   53000          300    5385.0578   -1597.9054     2924.207 
   54000          300    12408.227    -1597.734     2924.207 
   55000          300    5954.8323   -1598.5702     2924.207 
   56000          300    3525.1113   -1598.5373     2924.207 
   57000          300    13462.875   -1598.6359     2924.207 
   58000          300    3471.4981   -1598.6209     2924.207 
   59000          300    6606.7736    -1598.707     2924.207 
   60000          300     23648.85   -1596.8438     2924.207 
   61000          300    1865.7703   -1598.5313     2924.207 
   62000          300    7743.0666    -1598.116     2924.207 
   63000          300      11812.8   -1597.7989     2924.207 
   64000          300     16587.41   -1598.3093     2924.207 
   65000          300    7077.5762   -1598.3219     2924.207 
   66000          300    19548.805   -1597.5283     2924.207 
   67000          300    12297.872   -1599.5378     2924.207 
   68000          300    10588.319    -1597.982     2924.207 
   69000          300     9993.003   -1597.6776     2924.207 
   70000          300    13516.096    -1599.113     2924.207 
   71000          300    2434.1925   -1599.3601     2924.207 
   72000          300    16318.103   -1597.4334     2924.207 
   73000          300    9012.2959   -1598.4091     2924.207 
   74000          300    20883.083    -1597.971     2924.207 
   75000          300    6369.1021   -1599.2997     2924.207 
   76000          300    15444.536   -1599.0405     2924.207 
   77000          300    9971.4331   -1598.0948     2924.207 
   78000          300    16672.528   -1599.0836     2924.207 
   79000          300    17441.028   -1598.5917     2924.207 
   80000          300    12776.932   -1598.4397     2924.207 
   81000          300    9868.9227   -1598.3173     2924.207 
   82000          300    15768.216   -1598.8963     2924.207 
   83000          300    10430.426   -1597.6992     2924.207 
   84000          300    13723.965   -1599.3172     2924.207 
   85000          300    16412.687   -1598.1442     2924.207 
   86000          300    10552.675     -1598.48     2924.207 
   87000          300    8050.3966   -1599.8268     2924.207 
   88000          300    19999.395   -1597.8088     2924.207 
   89000          300    12954.784   -1599.6201     2924.207 
   90000          300    13073.538   -1599.2859     2924.207 
   91000          300     11802.04   -1599.0919     2924.207 
   92000          300     18923.17   -1600.4271     2924.207 
   93000          300    16837.484   -1597.7628     2924.207 
   94000          300    16312.472   -1598.8269     2924.207 
   95000          300    17521.183   -1600.0091     2924.207 
   96000          300    9620.0849   -1599.8939     2924.207 
   97000          300    21319.472   -1599.4677     2924.207 
   98000          300    12607.175    -1600.191     2924.207 
   99000          300    14079.307   -1600.4926     2924.207 
  100000          300    14217.019   -1600.0131     2924.207 
Loop time of 1096.3 on 2 procs for 100000 steps with 240 atoms

Pair  time (%) = 920.525 (83.9663)
Bond  time (%) = 0.039662 (0.0036178)
Neigh time (%) = 2.60607 (0.237714)
Comm  time (%) = 170.579 (15.5595)
Outpt time (%) = 0.00392103 (0.00035766)
Other time (%) = 2.5492 (0.232527)

Nlocal:    120 ave 123 max 117 min
Histogram: 1 0 0 0 0 0 0 0 0 1
Nghost:    5032.5 ave 5049 max 5016 min
Histogram: 1 0 0 0 0 0 0 0 0 1
Neighs:    45562 ave 46556 max 44568 min
Histogram: 1 0 0 0 0 0 0 0 0 1
FullNghs:  91124 ave 93107 max 89141 min
Histogram: 1 0 0 0 0 0 0 0 0 1

Total # of neighbors = 182248
Ave neighs/atom = 759.367
Ave special neighs/atom = 0
Neighbor list builds = 437
Dangerous builds = 0
#	run             	1000
	unfix 			1
	unfix 			2
#--------------------------------------------------------------------------
#nve
#--------------------------------------------------------------------------
	fix 			1 all nve
	timestep		${dt}
	timestep		0.0010000000000000000208
	thermo_style  		custom step temp press etotal vol
	thermo			1000
	run             	100000
Memory usage per processor = 4.81552 Mbytes
Step Temp Press TotEng Volume 
  100000          300    14217.019   -1600.0131     2924.207 
  101000    298.46043    11878.562   -1600.0149     2924.207 
  102000    276.51292    21888.972   -1600.0095     2924.207 
  103000     289.3814    15131.138   -1600.0135     2924.207 
  104000    291.82331    14635.451   -1600.0166     2924.207 
  105000    295.26108    12999.693   -1600.0149     2924.207 
  106000     284.3395    15444.198   -1600.0166     2924.207 
  107000    295.85518    17952.173   -1600.0147     2924.207 
  108000    294.73854    14141.605   -1600.0095     2924.207 
  109000    288.13344    17304.257   -1600.0099     2924.207 
  110000    288.84582    13501.023   -1600.0131     2924.207 
  111000    295.33566    13945.988   -1600.0132     2924.207 
  112000    286.17003      25114.7   -1600.0129     2924.207 
  113000    295.10338    12950.797   -1600.0104     2924.207 
  114000     283.9537    15659.522   -1600.0195     2924.207 
  115000    294.94561    13480.964   -1600.0179     2924.207 
  116000    278.69483    14383.006   -1600.0086     2924.207 
  117000    283.00509     17642.72   -1600.0122     2924.207 
  118000    281.16354    22195.938   -1600.0128     2924.207 
  119000    297.44945    8799.4631   -1600.0116     2924.207 
  120000    265.97656    28081.199    -1600.015     2924.207 
  121000    307.64515    12133.645   -1600.0169     2924.207 
  122000    238.62244    24955.992    -1600.017     2924.207 
  123000    253.36517    20435.326   -1600.0061     2924.207 
  124000    290.14111    17563.552   -1600.0178     2924.207 
  125000    298.86751    12453.603   -1600.0129     2924.207 
  126000    293.93416     16906.84   -1600.0136     2924.207 
  127000    323.40004    11518.335   -1600.0154     2924.207 
  128000     293.0285    14951.048   -1600.0148     2924.207 
  129000    261.31574    18502.393   -1600.0151     2924.207 
  130000    280.97272    11618.636   -1600.0099     2924.207 
  131000     322.4099    12450.968   -1600.0134     2924.207 
  132000    297.53702    13266.679    -1600.008     2924.207 
  133000    259.78703    17844.465    -1600.019     2924.207 
  134000    257.13905    15699.674   -1600.0127     2924.207 
  135000    270.61174    17537.916   -1600.0183     2924.207 
  136000    250.30452    14173.476   -1600.0169     2924.207 
  137000     316.5577    13499.858    -1600.018     2924.207 
  138000    325.95129     10083.45     -1600.02     2924.207 
  139000    298.55013    9971.5265    -1600.013     2924.207 
  140000    286.68954    17780.374   -1600.0049     2924.207 
  141000    306.09077    3531.6793   -1600.0078     2924.207 
  142000    294.67488    20716.618   -1600.0117     2924.207 
  143000    279.46571    17537.321   -1600.0134     2924.207 
  144000    324.15289    8071.0197   -1600.0224     2924.207 
  145000    315.84717    11153.607   -1600.0153     2924.207 
  146000    284.62281    19097.031   -1600.0122     2924.207 
  147000    319.86364    12625.691   -1600.0148     2924.207 
  148000    283.62158    11080.535   -1600.0149     2924.207 
  149000    296.67954     8359.822   -1600.0218     2924.207 
  150000    298.96816    15761.399   -1600.0176     2924.207 
  151000    305.99802     8708.304    -1600.016     2924.207 
  152000     292.2657    13163.622   -1600.0146     2924.207 
  153000    304.65796    13515.945   -1600.0136     2924.207 
  154000    300.31736    13090.496   -1600.0076     2924.207 
  155000    291.55414    10942.625   -1600.0178     2924.207 
  156000    310.91471    9713.9391   -1600.0215     2924.207 
  157000    302.42751    12481.774   -1600.0136     2924.207 
  158000    308.17828    9516.4946   -1600.0138     2924.207 
  159000    314.21695     10879.56   -1600.0147     2924.207 
  160000    297.87511    13236.878   -1600.0115     2924.207 
  161000    306.08116    8310.8606    -1600.016     2924.207 
  162000    277.44942    15644.379   -1600.0083     2924.207 
  163000    287.96476    11395.527   -1600.0079     2924.207 
  164000    313.21063     13724.95   -1600.0132     2924.207 
  165000    298.79986     6965.905   -1600.0139     2924.207 
  166000    297.57603    15828.674   -1600.0201     2924.207 
  167000    294.26946    11139.348   -1600.0163     2924.207 
  168000    296.66145    10882.624   -1600.0057     2924.207 
  169000    281.34506    18296.862   -1600.0109     2924.207 
  170000    293.75832    6849.3917   -1600.0157     2924.207 
  171000     292.4419    16932.456   -1600.0126     2924.207 
  172000    299.03536    14215.912   -1600.0147     2924.207 
  173000    279.27701    13079.383   -1600.0193     2924.207 
  174000     298.5438    17005.599   -1600.0116     2924.207 
  175000    280.72198    7236.3522   -1600.0158     2924.207 
  176000    266.41228    18739.438   -1600.0101     2924.207 
  177000    297.83354    10031.002   -1600.0156     2924.207 
  178000    290.20016    16184.275    -1600.009     2924.207 
  179000    304.76971    13457.631   -1600.0192     2924.207 
  180000    267.76757    13150.404   -1600.0169     2924.207 
  181000    280.04328    17135.502   -1600.0066     2924.207 
  182000    278.36334    14637.144   -1600.0133     2924.207 
  183000    263.24436    16200.141   -1600.0126     2924.207 
  184000    277.77439    15590.056   -1600.0111     2924.207 
  185000    287.56108    15421.501   -1600.0222     2924.207 
  186000    278.34004    15269.259   -1600.0118     2924.207 
  187000    264.85596    11845.789   -1600.0139     2924.207 
  188000    284.73114     14748.27   -1600.0144     2924.207 
  189000    284.19677    11585.445   -1600.0218     2924.207 
  190000    266.78681    10984.969   -1600.0068     2924.207 
  191000    272.97265    13299.798   -1600.0107     2924.207 
  192000    304.01248    20033.628   -1600.0155     2924.207 
  193000    273.19885    12402.401   -1600.0166     2924.207 
  194000    307.53094    18173.776   -1600.0204     2924.207 
  195000    271.41807    19379.084   -1600.0155     2924.207 
  196000    280.47075    16945.907   -1600.0226     2924.207 
  197000    273.98192    20378.672   -1600.0184     2924.207 
  198000    292.34683    9919.6728   -1600.0153     2924.207 
  199000    257.98219    23435.523   -1600.0136     2924.207 
  200000     290.2536    10228.768   -1600.0111     2924.207 
Loop time of 1111.58 on 2 procs for 100000 steps with 240 atoms

Pair  time (%) = 891.519 (80.2028)
Bond  time (%) = 0.0375278 (0.00337608)
Neigh time (%) = 5.17669 (0.465706)
Comm  time (%) = 212.891 (19.1521)
Outpt time (%) = 0.00416625 (0.000374804)
Other time (%) = 1.95203 (0.175609)

Nlocal:    120 ave 122 max 118 min
Histogram: 1 0 0 0 0 0 0 0 0 1
Nghost:    5027.5 ave 5053 max 5002 min
Histogram: 1 0 0 0 0 0 0 0 0 1
Neighs:    45587.5 ave 46164 max 45011 min
Histogram: 1 0 0 0 0 0 0 0 0 1
FullNghs:  91175 ave 92451 max 89899 min
Histogram: 1 0 0 0 0 0 0 0 0 1

Total # of neighbors = 182350
Ave neighs/atom = 759.792
Ave special neighs/atom = 0
Neighbor list builds = 888
Dangerous builds = 0
#	run             	10000
	unfix 			1
#--------------------------------------------------------------------------
#kappa
#--------------------------------------------------------------------------
log 	log_kappa_${iseed}.lammps
log 	log_kappa_10.lammps
