
#--------------------------------------------------------------------------
#nve rescale
#--------------------------------------------------------------------------
	velocity 		all create ${T_run} ${seed} rot yes dist gaussian
	velocity 		all create 300 ${seed} rot yes dist gaussian
	velocity 		all create 300 88888 rot yes dist gaussian

	fix 			1 all nve
	fix 			2 all temp/rescale 1 ${T_run} ${T_run} 0.01 1.0
	fix 			2 all temp/rescale 1 300 ${T_run} 0.01 1.0
	fix 			2 all temp/rescale 1 300 300 0.01 1.0
	timestep		${dt}
	timestep		0.0010000000000000000208
	thermo_style  		custom step temp press etotal vol
	thermo			1000
	run             	100000
Memory usage per processor = 4.35585 Mbytes
Step Temp Press TotEng Volume 
       0          300    177883.56   -1574.5439     2924.207 
    1000          300   -22160.214   -1593.9779     2924.207 
    2000          300   -3649.8844   -1597.6575     2924.207 
    3000          300    3150.4785   -1597.5821     2924.207 
    4000          300    31472.373   -1597.9339     2924.207 
    5000          300     10241.93   -1597.7439     2924.207 
    6000          300   -5853.7303   -1597.9353     2924.207 
    7000          300   -6255.1734   -1597.1317     2924.207 
    8000          300    6856.8547   -1597.5488     2924.207 
    9000          300    12523.803   -1597.7979     2924.207 
   10000          300    9854.2503   -1597.9166     2924.207 
   11000          300    590.37566   -1597.7535     2924.207 
   12000          300    4839.1083   -1597.4945     2924.207 
   13000          300    2807.0975   -1597.5039     2924.207 
   14000          300    5504.0427   -1597.8828     2924.207 
   15000          300     14046.89   -1597.8557     2924.207 
   16000          300    3410.9429   -1597.5357     2924.207 
   17000          300    3698.0826   -1597.6726     2924.207 
   18000          300    8365.5372    -1597.332     2924.207 
   19000          300    7414.2646   -1597.2574     2924.207 
   20000          300    6282.7615   -1597.8475     2924.207 
   21000          300    1107.3218   -1598.1016     2924.207 
   22000          300    2489.7489   -1597.5247     2924.207 
   23000          300    11970.265   -1597.5559     2924.207 
   24000          300    10933.222   -1597.9832     2924.207 
   25000          300     6212.795   -1597.1859     2924.207 
   26000          300    7716.5367    -1597.645     2924.207 
   27000          300     3485.986   -1596.1502     2924.207 
   28000          300    16317.689   -1597.3653     2924.207 
   29000          300    6598.2985   -1597.7696     2924.207 
   30000          300    3441.3884    -1597.158     2924.207 
   31000          300      9876.67   -1597.6948     2924.207 
   32000          300    15688.732   -1597.5702     2924.207 
   33000          300    -1303.424   -1597.7555     2924.207 
   34000          300    9295.4347   -1598.0391     2924.207 
   35000          300    8459.8429   -1597.1532     2924.207 
   36000          300    9754.9849   -1598.0965     2924.207 
   37000          300    9815.2224   -1597.2308     2924.207 
   38000          300    6954.9858   -1597.5152     2924.207 
   39000          300     5677.351   -1597.4415     2924.207 
   40000          300    11822.862    -1597.895     2924.207 
   41000          300    9550.5153   -1597.6042     2924.207 
   42000          300    5868.4241   -1598.6292     2924.207 
   43000          300    6810.1497   -1597.9207     2924.207 
   44000          300    16073.069   -1598.1351     2924.207 
   45000          300    5388.1556   -1597.6714     2924.207 
   46000          300    8223.1621   -1597.4542     2924.207 
   47000          300    6303.1038   -1598.2813     2924.207 
   48000          300    11709.116   -1597.8562     2924.207 
   49000          300    10997.656   -1598.1124     2924.207 
   50000          300   -810.68418   -1597.7159     2924.207 
   51000          300    13967.791   -1597.9024     2924.207 
   52000          300    15803.765     -1598.03     2924.207 
   53000          300    8266.2834   -1597.9562     2924.207 
   54000          300    7049.5591   -1598.4093     2924.207 
   55000          300    11474.527    -1598.187     2924.207 
   56000          300    8033.3058   -1598.5952     2924.207 
   57000          300    10884.342   -1597.6779     2924.207 
   58000          300    15050.696    -1598.508     2924.207 
   59000          300    16858.683     -1597.79     2924.207 
   60000          300    10093.634   -1598.6067     2924.207 
   61000          300    19191.393   -1599.0496     2924.207 
   62000          300    1376.2776   -1598.0429     2924.207 
   63000          300     10301.34   -1598.9782     2924.207 
   64000          300    9268.7791   -1599.2719     2924.207 
   65000          300    21176.635   -1598.1697     2924.207 
   66000          300    6681.4576   -1598.6687     2924.207 
   67000          300    13636.609   -1599.2632     2924.207 
   68000          300    8842.5551   -1598.7938     2924.207 
   69000          300    14858.295   -1598.6744     2924.207 
   70000          300    15065.222   -1597.5786     2924.207 
   71000          300    18049.033   -1597.3792     2924.207 
   72000          300    12716.091   -1599.1829     2924.207 
   73000          300    10316.601   -1599.1176     2924.207 
   74000          300    13408.547   -1599.5304     2924.207 
   75000          300    5894.3696   -1598.5297     2924.207 
   76000          300    23956.432   -1597.3727     2924.207 
   77000          300    11142.684   -1598.7375     2924.207 
   78000          300    11796.546   -1599.2369     2924.207 
   79000          300    14087.926   -1598.5878     2924.207 
   80000          300    11368.941   -1599.4291     2924.207 
   81000          300    12415.114    -1599.585     2924.207 
   82000          300    18171.545   -1598.8078     2924.207 
   83000          300    10961.464   -1599.6526     2924.207 
   84000          300    9600.6264   -1600.2574     2924.207 
   85000          300    18916.393   -1598.3584     2924.207 
   86000          300    12669.902   -1599.9809     2924.207 
   87000          300     7043.218   -1601.0365     2924.207 
   88000          300    20296.197   -1598.0854     2924.207 
   89000          300    11667.447   -1598.9678     2924.207 
   90000          300    12500.735   -1600.0223     2924.207 
   91000          300    14009.871   -1599.8586     2924.207 
   92000          300    20090.333   -1599.3324     2924.207 
   93000          300    8664.8378   -1599.7687     2924.207 
   94000          300    14582.619   -1601.5497     2924.207 
   95000          300    9349.1697   -1600.4273     2924.207 
   96000          300    19231.947   -1598.6059     2924.207 
   97000          300     6947.308   -1600.9459     2924.207 
   98000          300    15702.165     -1601.06     2924.207 
   99000          300    18708.082   -1599.7839     2924.207 
  100000          300    17497.581   -1601.2494     2924.207 
Loop time of 974.222 on 2 procs for 100000 steps with 240 atoms

Pair  time (%) = 827.248 (84.9137)
Bond  time (%) = 0.0335147 (0.00344016)
Neigh time (%) = 2.87176 (0.294774)
Comm  time (%) = 141.826 (14.5579)
Outpt time (%) = 0.00437737 (0.000449319)
Other time (%) = 2.23831 (0.229754)

Nlocal:    120 ave 123 max 117 min
Histogram: 1 0 0 0 0 0 0 0 0 1
Nghost:    5071.5 ave 5079 max 5064 min
Histogram: 1 0 0 0 0 0 0 0 0 1
Neighs:    45560.5 ave 46496 max 44625 min
Histogram: 1 0 0 0 0 0 0 0 0 1
FullNghs:  91121 ave 93035 max 89207 min
Histogram: 1 0 0 0 0 0 0 0 0 1

Total # of neighbors = 182242
Ave neighs/atom = 759.342
Ave special neighs/atom = 0
Neighbor list builds = 501
Dangerous builds = 0
#	run             	1000
	unfix 			1
	unfix 			2
#--------------------------------------------------------------------------
#nve
#--------------------------------------------------------------------------
	fix 			1 all nve
	timestep		${dt}
	timestep		0.0010000000000000000208
	thermo_style  		custom step temp press etotal vol
	thermo			1000
	run             	100000
Memory usage per processor = 4.81552 Mbytes
Step Temp Press TotEng Volume 
  100000          300    17497.581   -1601.2494     2924.207 
  101000    247.85561    12005.537     -1601.25     2924.207 
  102000    290.33556    18730.586    -1601.254     2924.207 
  103000    247.30987    15968.092    -1601.247     2924.207 
  104000    266.15889    14566.075   -1601.2515     2924.207 
  105000    264.27874    19176.349   -1601.2478     2924.207 
  106000    266.88091     13751.75   -1601.2558     2924.207 
  107000    266.53877    20432.502   -1601.2482     2924.207 
  108000    250.99365     16490.91   -1601.2499     2924.207 
  109000    278.64585    12376.768   -1601.2454     2924.207 
  110000    249.35826    17416.671   -1601.2499     2924.207 
  111000     249.4551    16849.003   -1601.2536     2924.207 
  112000    293.17558    15541.155   -1601.2543     2924.207 
  113000     297.1726    12094.975    -1601.251     2924.207 
  114000    293.88026    9405.2602   -1601.2523     2924.207 
  115000    304.25508     11190.81   -1601.2579     2924.207 
  116000      268.865     11866.51   -1601.2504     2924.207 
  117000    274.00774    12470.864   -1601.2542     2924.207 
  118000    285.34683    11747.364   -1601.2482     2924.207 
  119000    275.28541    12395.089   -1601.2497     2924.207 
  120000    255.68997    18628.792    -1601.259     2924.207 
  121000    261.54151    16458.711   -1601.2525     2924.207 
  122000    286.05631     16028.05   -1601.2567     2924.207 
  123000    269.03195    16809.451   -1601.2576     2924.207 
  124000    247.46288    18055.639   -1601.2532     2924.207 
  125000    259.09276    21675.073    -1601.252     2924.207 
  126000    285.46138    8613.7467   -1601.2555     2924.207 
  127000    256.84017    14978.809   -1601.2535     2924.207 
  128000     274.6421    16922.355   -1601.2509     2924.207 
  129000    288.79751    15364.046   -1601.2547     2924.207 
  130000    261.04789    20135.731   -1601.2497     2924.207 
  131000    272.20249    15681.395   -1601.2546     2924.207 
  132000    279.00318    13499.534   -1601.2521     2924.207 
  133000    270.98503    7273.5626   -1601.2493     2924.207 
  134000    267.62212    19149.798   -1601.2498     2924.207 
  135000    298.82483    11456.023   -1601.2533     2924.207 
  136000    292.62076    10039.903    -1601.254     2924.207 
  137000    282.96516    12150.731   -1601.2558     2924.207 
  138000    293.30502    10973.578   -1601.2534     2924.207 
  139000    307.07788    12609.426   -1601.2568     2924.207 
  140000    276.68211    13130.413   -1601.2527     2924.207 
  141000    282.14285    15181.191   -1601.2547     2924.207 
  142000    276.19473    9436.9454   -1601.2529     2924.207 
  143000    304.37302    6511.6503   -1601.2536     2924.207 
  144000    263.73542    17646.433   -1601.2516     2924.207 
  145000    305.35071    9357.8128   -1601.2511     2924.207 
  146000    287.06592    12919.387   -1601.2567     2924.207 
  147000    282.05837    9260.1856   -1601.2469     2924.207 
  148000    277.77991    14445.699   -1601.2514     2924.207 
  149000    295.78307    8118.5338   -1601.2551     2924.207 
  150000    288.17428    10892.444   -1601.2476     2924.207 
  151000    301.25798    4836.7067   -1601.2513     2924.207 
  152000    275.79025    21058.798   -1601.2519     2924.207 
  153000    291.48795    5935.0187   -1601.2542     2924.207 
  154000    286.64958    17187.156   -1601.2499     2924.207 
  155000    275.83295    11901.093   -1601.2562     2924.207 
  156000    286.65857    10245.631   -1601.2493     2924.207 
  157000     260.5098    16974.194   -1601.2523     2924.207 
  158000    290.96998    16474.979   -1601.2575     2924.207 
  159000    244.65272    16460.568   -1601.2504     2924.207 
  160000    281.79083    15696.305   -1601.2564     2924.207 
  161000    267.06227    16184.259   -1601.2529     2924.207 
  162000    299.77828    13192.309   -1601.2595     2924.207 
  163000    272.87945    11598.072     -1601.25     2924.207 
  164000    307.67581    10655.196   -1601.2616     2924.207 
  165000    267.10615     11767.99   -1601.2528     2924.207 
  166000    294.01548    15391.191   -1601.2511     2924.207 
  167000    297.54884    9748.1092   -1601.2578     2924.207 
  168000    261.80209    13753.983   -1601.2565     2924.207 
  169000    285.92466    14511.953   -1601.2516     2924.207 
  170000    246.22907    12874.405   -1601.2509     2924.207 
  171000    288.42564    13946.026   -1601.2541     2924.207 
  172000    266.58391      14275.4   -1601.2544     2924.207 
  173000    275.38251    11975.815   -1601.2513     2924.207 
  174000    278.46556     17446.64    -1601.257     2924.207 
  175000    288.51307    6942.5284   -1601.2513     2924.207 
  176000    239.17581    15201.528   -1601.2535     2924.207 
  177000    307.56234    5164.1314   -1601.2548     2924.207 
  178000    275.32948    17633.588   -1601.2627     2924.207 
  179000    272.83116    15894.398   -1601.2518     2924.207 
  180000     274.7888    10344.119   -1601.2482     2924.207 
  181000    290.50564    14915.868   -1601.2558     2924.207 
  182000    279.67833    9151.3083   -1601.2543     2924.207 
  183000    270.62762    20478.209   -1601.2538     2924.207 
  184000    275.07313    7943.6128   -1601.2497     2924.207 
  185000    281.12183    9257.9477     -1601.25     2924.207 
  186000    261.15717    9368.3243   -1601.2486     2924.207 
  187000    283.46289    14721.554   -1601.2526     2924.207 
  188000     249.7939    17205.463   -1601.2573     2924.207 
  189000    311.79348    9849.4799   -1601.2589     2924.207 
  190000    276.54739    16151.799   -1601.2592     2924.207 
  191000    267.67328    15170.414   -1601.2519     2924.207 
  192000    303.02585      10910.7   -1601.2542     2924.207 
  193000     289.5008    10548.648   -1601.2547     2924.207 
  194000    289.76446    4294.9899   -1601.2526     2924.207 
  195000    281.33933     15463.06   -1601.2515     2924.207 
  196000    284.21539     5355.622   -1601.2519     2924.207 
  197000     292.3055    18477.686   -1601.2597     2924.207 
  198000    291.09152    6421.3025   -1601.2523     2924.207 
  199000     295.7551    13834.371   -1601.2579     2924.207 
  200000    291.71363    6391.5131   -1601.2528     2924.207 
Loop time of 1117.22 on 2 procs for 100000 steps with 240 atoms

Pair  time (%) = 901.867 (80.7245)
Bond  time (%) = 0.034916 (0.00312527)
Neigh time (%) = 5.2083 (0.466185)
Comm  time (%) = 208.159 (18.632)
Outpt time (%) = 0.00401592 (0.000359458)
Other time (%) = 1.94199 (0.173824)

Nlocal:    120 ave 126 max 114 min
Histogram: 1 0 0 0 0 0 0 0 0 1
Nghost:    5055 ave 5079 max 5031 min
Histogram: 1 0 0 0 0 0 0 0 0 1
Neighs:    45555.5 ave 47582 max 43529 min
Histogram: 1 0 0 0 0 0 0 0 0 1
FullNghs:  91111 ave 95293 max 86929 min
Histogram: 1 0 0 0 0 0 0 0 0 1

Total # of neighbors = 182222
Ave neighs/atom = 759.258
Ave special neighs/atom = 0
Neighbor list builds = 890
Dangerous builds = 0
#	run             	10000
	unfix 			1
#--------------------------------------------------------------------------
#kappa
#--------------------------------------------------------------------------
log 	log_kappa_${iseed}.lammps
log 	log_kappa_8.lammps
