
#--------------------------------------------------------------------------
#nve rescale
#--------------------------------------------------------------------------
	velocity 		all create ${T_run} ${seed} rot yes dist gaussian
	velocity 		all create 300 ${seed} rot yes dist gaussian
	velocity 		all create 300 11111 rot yes dist gaussian

	fix 			1 all nve
	fix 			2 all temp/rescale 1 ${T_run} ${T_run} 0.01 1.0
	fix 			2 all temp/rescale 1 300 ${T_run} 0.01 1.0
	fix 			2 all temp/rescale 1 300 300 0.01 1.0
	timestep		${dt}
	timestep		0.0010000000000000000208
	thermo_style  		custom step temp press etotal vol
	thermo			1000
	run             	100000
Memory usage per processor = 4.35585 Mbytes
Step Temp Press TotEng Volume 
       0          300    177883.56   -1574.5439     2924.207 
    1000          300     5683.159    -1596.005     2924.207 
    2000          300    37097.238   -1598.2001     2924.207 
    3000          300    27317.505   -1597.3101     2924.207 
    4000          300    23439.579   -1598.0248     2924.207 
    5000          300   -10875.768   -1597.8114     2924.207 
    6000          300   -20045.358   -1596.8704     2924.207 
    7000          300    -14126.19   -1596.8434     2924.207 
    8000          300    18091.034   -1597.9706     2924.207 
    9000          300    35426.866   -1597.7847     2924.207 
   10000          300    23274.548   -1597.8978     2924.207 
   11000          300   -6676.2267   -1597.1715     2924.207 
   12000          300   -20787.012   -1596.9291     2924.207 
   13000          300   -9321.0283   -1597.6226     2924.207 
   14000          300    14385.363   -1597.6574     2924.207 
   15000          300     20792.22   -1597.9022     2924.207 
   16000          300    10459.395    -1597.532     2924.207 
   17000          300   -5571.2745   -1597.3293     2924.207 
   18000          300   -7613.4137   -1596.8679     2924.207 
   19000          300    2924.4019   -1598.0852     2924.207 
   20000          300    14668.395   -1597.8323     2924.207 
   21000          300    19424.623   -1597.4197     2924.207 
   22000          300    7260.8262   -1597.6878     2924.207 
   23000          300   -4530.3408   -1597.2199     2924.207 
   24000          300   -11658.021   -1596.6635     2924.207 
   25000          300    13012.082   -1597.1622     2924.207 
   26000          300     21184.47   -1596.8661     2924.207 
   27000          300    7684.0214   -1597.1406     2924.207 
   28000          300   -1928.7821   -1597.0704     2924.207 
   29000          300    235.32983   -1597.3767     2924.207 
   30000          300    13592.723   -1597.4138     2924.207 
   31000          300     13568.64   -1597.2816     2924.207 
   32000          300    2246.2205   -1596.9442     2924.207 
   33000          300    1672.6692   -1597.2308     2924.207 
   34000          300     17026.42   -1597.3398     2924.207 
   35000          300    8207.2907   -1597.9358     2924.207 
   36000          300   -4766.2451   -1597.6134     2924.207 
   37000          300    8550.1439   -1597.8194     2924.207 
   38000          300    13802.563   -1597.2214     2924.207 
   39000          300    5059.8139   -1597.1036     2924.207 
   40000          300    8417.9155   -1597.2182     2924.207 
   41000          300    11241.057   -1597.4573     2924.207 
   42000          300     2949.261   -1597.7082     2924.207 
   43000          300    4900.1865    -1597.626     2924.207 
   44000          300    10716.078   -1597.0141     2924.207 
   45000          300    21835.218     -1596.44     2924.207 
   46000          300    9153.0522   -1597.7347     2924.207 
   47000          300    7428.4375   -1597.2387     2924.207 
   48000          300    5258.4823   -1597.4844     2924.207 
   49000          300    14857.944   -1597.8607     2924.207 
   50000          300    12780.436   -1597.2104     2924.207 
   51000          300    7541.9345   -1597.6529     2924.207 
   52000          300    11232.879    -1598.354     2924.207 
   53000          300    12424.888   -1597.7685     2924.207 
   54000          300     5962.436   -1596.9767     2924.207 
   55000          300     12397.89   -1598.0037     2924.207 
   56000          300    6761.9726   -1597.4919     2924.207 
   57000          300    2846.7602   -1598.6899     2924.207 
   58000          300    12619.893   -1598.9465     2924.207 
   59000          300    9668.2751   -1596.4391     2924.207 
   60000          300    16950.157   -1596.9736     2924.207 
   61000          300    10055.171   -1598.3353     2924.207 
   62000          300    12637.724   -1597.9871     2924.207 
   63000          300    12876.133    -1598.427     2924.207 
   64000          300    5976.3365   -1598.5982     2924.207 
   65000          300    17373.838   -1598.2753     2924.207 
   66000          300    13377.214   -1597.1934     2924.207 
   67000          300    4853.0915   -1598.2565     2924.207 
   68000          300    13854.179   -1598.3685     2924.207 
   69000          300    10723.012   -1598.6064     2924.207 
   70000          300    16122.489   -1597.7025     2924.207 
   71000          300    11003.214   -1597.7743     2924.207 
   72000          300    14624.219   -1598.5513     2924.207 
   73000          300    6729.2462   -1598.5633     2924.207 
   74000          300    14599.314    -1599.294     2924.207 
   75000          300    14190.285   -1598.1206     2924.207 
   76000          300    6144.5075   -1598.1596     2924.207 
   77000          300     15536.87    -1599.706     2924.207 
   78000          300    14380.929   -1598.3684     2924.207 
   79000          300    16931.072   -1598.0762     2924.207 
   80000          300    11350.521   -1598.4569     2924.207 
   81000          300    13315.356    -1599.479     2924.207 
   82000          300    12726.446   -1597.6931     2924.207 
   83000          300    15140.081   -1599.0906     2924.207 
   84000          300    13612.684   -1598.2123     2924.207 
   85000          300    15637.485   -1597.5419     2924.207 
   86000          300    12218.575   -1599.9235     2924.207 
   87000          300    7392.2398   -1599.4336     2924.207 
   88000          300    9933.9869   -1599.5422     2924.207 
   89000          300    19219.554   -1599.2679     2924.207 
   90000          300     5547.499   -1600.1328     2924.207 
   91000          300    14896.291   -1599.3255     2924.207 
   92000          300    7825.7024   -1599.6516     2924.207 
   93000          300    17306.643   -1598.7664     2924.207 
   94000          300    5228.1083   -1600.4175     2924.207 
   95000          300    17892.316   -1598.6912     2924.207 
   96000          300    17047.197   -1598.6823     2924.207 
   97000          300    7318.0854   -1599.8862     2924.207 
   98000          300    21954.187   -1598.2306     2924.207 
   99000          300     10163.26    -1599.744     2924.207 
  100000          300    19576.679   -1601.1056     2924.207 
Loop time of 645.592 on 2 procs for 100000 steps with 240 atoms

Pair  time (%) = 620.029 (96.0403)
Bond  time (%) = 0.0270779 (0.00419428)
Neigh time (%) = 1.77503 (0.274945)
Comm  time (%) = 22.0853 (3.42093)
Outpt time (%) = 0.00292742 (0.000453448)
Other time (%) = 1.67299 (0.259141)

Nlocal:    120 ave 121 max 119 min
Histogram: 1 0 0 0 0 0 0 0 0 1
Nghost:    5040 ave 5041 max 5039 min
Histogram: 1 0 0 0 0 0 0 0 0 1
Neighs:    45628 ave 46026 max 45230 min
Histogram: 1 0 0 0 0 0 0 0 0 1
FullNghs:  91256 ave 92066 max 90446 min
Histogram: 1 0 0 0 0 0 0 0 0 1

Total # of neighbors = 182512
Ave neighs/atom = 760.467
Ave special neighs/atom = 0
Neighbor list builds = 405
Dangerous builds = 0
#	run             	1000
	unfix 			1
	unfix 			2
#--------------------------------------------------------------------------
#nve
#--------------------------------------------------------------------------
	fix 			1 all nve
	timestep		${dt}
	timestep		0.0010000000000000000208
	thermo_style  		custom step temp press etotal vol
	thermo			1000
	run             	100000
Memory usage per processor = 4.81552 Mbytes
Step Temp Press TotEng Volume 
  100000          300    19576.679   -1601.1056     2924.207 
  101000    271.70426    3323.4782   -1601.0977     2924.207 
  102000    263.23643     20499.37   -1601.1037     2924.207 
  103000    299.13252    8884.2972   -1601.1015     2924.207 
  104000    285.40553    12138.254   -1601.1018     2924.207 
  105000    274.81466    12554.098   -1601.1014     2924.207 
  106000    291.34878    14728.047   -1601.1017     2924.207 
  107000     279.8876    14446.737   -1601.1028     2924.207 
  108000    271.63382      16693.1   -1601.1047     2924.207 
  109000    295.45616     7031.479   -1601.1072     2924.207 
  110000    263.94948    19286.342   -1601.1069     2924.207 
  111000    273.56479     13363.35   -1601.1038     2924.207 
  112000    309.26857    10697.132    -1601.104     2924.207 
  113000    253.30171    14204.675   -1601.0994     2924.207 
  114000    288.06224    16909.735   -1601.1054     2924.207 
  115000    272.23492    13309.829   -1601.0998     2924.207 
  116000    275.02283    13138.394   -1601.1011     2924.207 
  117000    288.29629    17793.678   -1601.1039     2924.207 
  118000    263.62729    6937.8731   -1601.0978     2924.207 
  119000    269.07777    12260.719   -1601.1032     2924.207 
  120000    281.57939    14702.259   -1601.1075     2924.207 
  121000    275.01641    20127.859   -1601.0997     2924.207 
  122000    269.97482    10672.497   -1601.1085     2924.207 
  123000    271.94389    20099.334   -1601.1063     2924.207 
  124000    291.24604    10638.403   -1601.1091     2924.207 
  125000    264.11761    14349.004   -1601.0995     2924.207 
  126000    262.81288    10719.812   -1601.1014     2924.207 
  127000    280.77395    12849.895   -1601.1064     2924.207 
  128000    293.45165    15350.942   -1601.1095     2924.207 
  129000    268.30453     16659.59   -1601.0999     2924.207 
  130000    276.29468     19588.32   -1601.1049     2924.207 
  131000    273.23442    7430.1274   -1601.1089     2924.207 
  132000    266.81021    19191.626   -1601.1021     2924.207 
  133000    261.85587    12870.093   -1601.1038     2924.207 
  134000    276.64583    14725.664   -1601.1114     2924.207 
  135000    282.07192    10274.081   -1601.1018     2924.207 
  136000     258.0913    11797.699   -1601.1036     2924.207 
  137000    254.35264    16243.352   -1601.1032     2924.207 
  138000    271.64821    12994.162    -1601.102     2924.207 
  139000    274.09813    15190.705   -1601.1112     2924.207 
  140000    258.32915    14860.217   -1601.1005     2924.207 
  141000    277.70386    14712.753   -1601.1064     2924.207 
  142000    268.51928    17212.672   -1601.1031     2924.207 
  143000    284.78442    7553.2449   -1601.1064     2924.207 
  144000    231.43916    19859.749   -1601.1043     2924.207 
  145000    256.89202    20307.265   -1601.1044     2924.207 
  146000    230.07883    11655.956   -1601.1011     2924.207 
  147000    262.15736    17899.745   -1601.1008     2924.207 
  148000    280.97424    8215.1504   -1601.1035     2924.207 
  149000    274.49058    10153.522   -1601.1118     2924.207 
  150000    287.26565     10963.95    -1601.104     2924.207 
  151000    265.20981     16366.92   -1601.1027     2924.207 
  152000    302.55891    12783.566   -1601.1118     2924.207 
  153000    245.92627    17866.604   -1601.1045     2924.207 
  154000     281.5153    13233.699   -1601.0999     2924.207 
  155000    263.94118    13357.316   -1601.1019     2924.207 
  156000    249.52706    16199.611   -1601.1082     2924.207 
  157000    288.15002    9366.4341   -1601.1018     2924.207 
  158000    285.79374     11962.07   -1601.1014     2924.207 
  159000    260.89277    21870.846   -1601.1042     2924.207 
  160000    287.98658     11632.51   -1601.1051     2924.207 
  161000    249.90001    13371.757    -1601.108     2924.207 
  162000    278.37607    16042.018   -1601.1085     2924.207 
  163000    283.76567    15936.302   -1601.1031     2924.207 
  164000    245.05956    13869.184   -1601.1036     2924.207 
  165000    266.68186    12053.568   -1601.1014     2924.207 
  166000    279.29459    10704.897   -1601.1055     2924.207 
  167000    258.25579    17903.993   -1601.1126     2924.207 
  168000    237.43739    14537.583   -1601.1073     2924.207 
  169000    275.07622     17357.64   -1601.1101     2924.207 
  170000     274.2063    8983.2853   -1601.1015     2924.207 
  171000    274.91607    15837.483   -1601.1071     2924.207 
  172000    262.75197    8587.6582   -1601.1041     2924.207 
  173000    290.29656     8595.321   -1601.1013     2924.207 
  174000    240.54465    25235.355   -1601.1023     2924.207 
  175000    301.82069    3546.3565   -1601.1103     2924.207 
  176000    275.54648    13719.046   -1601.1119     2924.207 
  177000     267.0949    9588.1681   -1601.1035     2924.207 
  178000    285.81899    16998.028   -1601.1086     2924.207 
  179000    266.19246    17202.245   -1601.1044     2924.207 
  180000    227.30147     15155.28    -1601.104     2924.207 
  181000    263.16354    22368.473   -1601.1059     2924.207 
  182000    277.61402    8027.8498   -1601.1009     2924.207 
  183000    272.48238     9613.267   -1601.1034     2924.207 
  184000     269.4278    8118.9654    -1601.097     2924.207 
  185000    268.59901    7272.5172   -1601.1027     2924.207 
  186000    284.52906    12274.977   -1601.1045     2924.207 
  187000    291.43396     5423.582   -1601.1018     2924.207 
  188000    274.98417     8372.628   -1601.1026     2924.207 
  189000    271.68562    10644.466   -1601.1045     2924.207 
  190000    283.53281    6033.1591      -1601.1     2924.207 
  191000    263.15614    17775.895   -1601.0999     2924.207 
  192000    265.11738    9647.0608   -1601.1081     2924.207 
  193000    276.13567    14768.519   -1601.1079     2924.207 
  194000    288.90337     9774.281   -1601.1067     2924.207 
  195000    260.05113    13207.739   -1601.1051     2924.207 
  196000    288.03177    12136.939    -1601.108     2924.207 
  197000    281.21996    8597.2064   -1601.1121     2924.207 
  198000    251.31196    13175.341   -1601.0974     2924.207 
  199000    265.18387    10657.808    -1601.099     2924.207 
  200000    257.10625     8384.085   -1601.1024     2924.207 
Loop time of 663.981 on 2 procs for 100000 steps with 240 atoms

Pair  time (%) = 632.835 (95.3092)
Bond  time (%) = 0.0264093 (0.00397741)
Neigh time (%) = 3.79978 (0.572272)
Comm  time (%) = 25.9503 (3.90829)
Outpt time (%) = 0.0032481 (0.000489185)
Other time (%) = 1.36633 (0.205778)

Nlocal:    120 ave 121 max 119 min
Histogram: 1 0 0 0 0 0 0 0 0 1
Nghost:    5035.5 ave 5039 max 5032 min
Histogram: 1 0 0 0 0 0 0 0 0 1
Neighs:    45547 ave 45822 max 45272 min
Histogram: 1 0 0 0 0 0 0 0 0 1
FullNghs:  91094 ave 91688 max 90500 min
Histogram: 1 0 0 0 0 0 0 0 0 1

Total # of neighbors = 182188
Ave neighs/atom = 759.117
Ave special neighs/atom = 0
Neighbor list builds = 850
Dangerous builds = 0
#	run             	10000
	unfix 			1
#--------------------------------------------------------------------------
#kappa
#--------------------------------------------------------------------------
log 	log_kappa_${iseed}.lammps
log 	log_kappa_1.lammps
