
#--------------------------------------------------------------------------
#nve rescale
#--------------------------------------------------------------------------
	velocity 		all create ${T_run} ${seed} rot yes dist gaussian
	velocity 		all create 300 ${seed} rot yes dist gaussian
	velocity 		all create 300 55555 rot yes dist gaussian

	fix 			1 all nve
	fix 			2 all temp/rescale 1 ${T_run} ${T_run} 0.01 1.0
	fix 			2 all temp/rescale 1 300 ${T_run} 0.01 1.0
	fix 			2 all temp/rescale 1 300 300 0.01 1.0
	timestep		${dt}
	timestep		0.0010000000000000000208
	thermo_style  		custom step temp press etotal vol
	thermo			1000
	run             	100000
Memory usage per processor = 4.35585 Mbytes
Step Temp Press TotEng Volume 
       0          300    177883.56   -1574.5439     2924.207 
    1000          300    2358.1803   -1595.3548     2924.207 
    2000          300     23864.13     -1597.96     2924.207 
    3000          300    27582.647   -1597.2185     2924.207 
    4000          300    28964.026   -1598.1342     2924.207 
    5000          300   -3372.0592   -1597.6956     2924.207 
    6000          300   -15750.897   -1597.2015     2924.207 
    7000          300   -15028.426   -1597.5588     2924.207 
    8000          300     15149.46   -1597.6246     2924.207 
    9000          300    36357.083   -1598.1693     2924.207 
   10000          300    21595.974   -1597.5733     2924.207 
   11000          300    597.56027   -1597.6211     2924.207 
   12000          300   -14886.499   -1597.1576     2924.207 
   13000          300   -11900.045   -1597.8166     2924.207 
   14000          300    12162.318   -1597.5569     2924.207 
   15000          300     15186.74   -1597.7583     2924.207 
   16000          300    11461.138   -1598.1173     2924.207 
   17000          300    1613.5417   -1597.6416     2924.207 
   18000          300   -5856.0895   -1597.5047     2924.207 
   19000          300    4433.8795   -1597.1433     2924.207 
   20000          300    12072.733   -1597.6927     2924.207 
   21000          300    10284.021   -1597.5843     2924.207 
   22000          300    26.923785    -1597.151     2924.207 
   23000          300   -4133.7353   -1598.0642     2924.207 
   24000          300    13049.017   -1597.5459     2924.207 
   25000          300     9777.238   -1597.1766     2924.207 
   26000          300    487.68439   -1597.9123     2924.207 
   27000          300    6266.8164   -1597.6302     2924.207 
   28000          300    5581.9345   -1597.8075     2924.207 
   29000          300    -4361.102   -1597.2667     2924.207 
   30000          300    11712.576   -1597.5532     2924.207 
   31000          300    12174.737   -1597.2554     2924.207 
   32000          300    1449.9643   -1597.6556     2924.207 
   33000          300     1556.516   -1597.8079     2924.207 
   34000          300    4819.4948   -1597.7179     2924.207 
   35000          300    12184.271   -1596.7062     2924.207 
   36000          300    10353.269   -1596.9019     2924.207 
   37000          300   -10035.242   -1597.7682     2924.207 
   38000          300    8250.4307   -1597.7152     2924.207 
   39000          300    16627.189   -1597.7497     2924.207 
   40000          300    13794.366   -1597.3226     2924.207 
   41000          300    3312.7628    -1597.054     2924.207 
   42000          300    269.39957    -1598.049     2924.207 
   43000          300     15789.05   -1597.6428     2924.207 
   44000          300    9382.2017    -1597.378     2924.207 
   45000          300    3294.1242    -1597.463     2924.207 
   46000          300    13401.513   -1597.4426     2924.207 
   47000          300    7826.5705   -1597.0101     2924.207 
   48000          300    8022.9382   -1596.7687     2924.207 
   49000          300    8581.5633   -1597.6781     2924.207 
   50000          300    8671.5907   -1598.3991     2924.207 
   51000          300    11130.993   -1598.1835     2924.207 
   52000          300    7920.1312   -1597.4508     2924.207 
   53000          300    6879.9667     -1597.55     2924.207 
   54000          300    16091.864   -1597.6774     2924.207 
   55000          300    6952.5242   -1597.0234     2924.207 
   56000          300    5024.6358   -1598.6524     2924.207 
   57000          300    15512.723    -1597.229     2924.207 
   58000          300    3860.2334   -1597.6825     2924.207 
   59000          300     1695.538   -1597.1463     2924.207 
   60000          300    17431.497    -1598.025     2924.207 
   61000          300    7115.1363    -1597.989     2924.207 
   62000          300    10368.293   -1597.0468     2924.207 
   63000          300    12531.198   -1597.7694     2924.207 
   64000          300    13808.366   -1597.2409     2924.207 
   65000          300    10209.967   -1596.8327     2924.207 
   66000          300    18744.867    -1597.927     2924.207 
   67000          300    4306.7561   -1597.7169     2924.207 
   68000          300    18058.496   -1598.2401     2924.207 
   69000          300    11392.671   -1597.5698     2924.207 
   70000          300    18570.071   -1597.2194     2924.207 
   71000          300    2801.6504   -1598.7111     2924.207 
   72000          300    17250.625   -1597.3447     2924.207 
   73000          300     7587.054   -1597.7924     2924.207 
   74000          300    3435.0305   -1598.8693     2924.207 
   75000          300    9682.9887    -1597.555     2924.207 
   76000          300    6646.8516   -1598.9522     2924.207 
   77000          300    20861.174   -1598.7738     2924.207 
   78000          300    7905.7673   -1598.2438     2924.207 
   79000          300      5691.12   -1598.9329     2924.207 
   80000          300    11066.807   -1598.8143     2924.207 
   81000          300     9468.451   -1598.3066     2924.207 
   82000          300    15307.194   -1599.5371     2924.207 
   83000          300    7427.5201   -1597.5879     2924.207 
   84000          300    9852.8422   -1598.9273     2924.207 
   85000          300    19703.852   -1598.0747     2924.207 
   86000          300    6052.7548   -1599.5973     2924.207 
   87000          300    11597.614    -1597.992     2924.207 
   88000          300    10566.453   -1599.2991     2924.207 
   89000          300    19934.428   -1597.9097     2924.207 
   90000          300    5335.4524   -1599.3935     2924.207 
   91000          300    14518.421   -1599.9843     2924.207 
   92000          300    8376.0548   -1599.0997     2924.207 
   93000          300    14247.197   -1598.9708     2924.207 
   94000          300    6497.9841   -1599.0321     2924.207 
   95000          300    14875.616   -1599.6621     2924.207 
   96000          300    18349.481    -1598.762     2924.207 
   97000          300    6317.8015   -1600.3188     2924.207 
   98000          300    13857.711   -1599.7499     2924.207 
   99000          300     18277.23   -1599.9279     2924.207 
  100000          300    11247.347   -1600.0109     2924.207 
Loop time of 649.118 on 2 procs for 100000 steps with 240 atoms

Pair  time (%) = 622.638 (95.9207)
Bond  time (%) = 0.0239583 (0.00369091)
Neigh time (%) = 1.61638 (0.249012)
Comm  time (%) = 23.2295 (3.57863)
Outpt time (%) = 0.00285089 (0.000439195)
Other time (%) = 1.6066 (0.247505)

Nlocal:    120 ave 123 max 117 min
Histogram: 1 0 0 0 0 0 0 0 0 1
Nghost:    5091 ave 5109 max 5073 min
Histogram: 1 0 0 0 0 0 0 0 0 1
Neighs:    45573 ave 46628 max 44518 min
Histogram: 1 0 0 0 0 0 0 0 0 1
FullNghs:  91146 ave 93275 max 89017 min
Histogram: 1 0 0 0 0 0 0 0 0 1

Total # of neighbors = 182292
Ave neighs/atom = 759.55
Ave special neighs/atom = 0
Neighbor list builds = 379
Dangerous builds = 0
#	run             	1000
	unfix 			1
	unfix 			2
#--------------------------------------------------------------------------
#nve
#--------------------------------------------------------------------------
	fix 			1 all nve
	timestep		${dt}
	timestep		0.0010000000000000000208
	thermo_style  		custom step temp press etotal vol
	thermo			1000
	run             	100000
Memory usage per processor = 4.81552 Mbytes
Step Temp Press TotEng Volume 
  100000          300    11247.347   -1600.0109     2924.207 
  101000    299.82648      15624.7   -1600.0109     2924.207 
  102000    285.09783    14613.532    -1600.017     2924.207 
  103000     307.1051    12360.983   -1600.0146     2924.207 
  104000    281.75898    10775.574    -1600.018     2924.207 
  105000    277.65624    23571.167   -1600.0114     2924.207 
  106000    311.62576    8034.6242   -1600.0142     2924.207 
  107000    283.59789    23793.364   -1600.0141     2924.207 
  108000    301.07156    8086.5483   -1600.0101     2924.207 
  109000    299.39712    15150.243   -1600.0176     2924.207 
  110000    321.59893    9063.1332   -1600.0116     2924.207 
  111000    282.45408    14763.933   -1600.0118     2924.207 
  112000     311.0384    15379.641   -1600.0184     2924.207 
  113000    307.37942    14633.421   -1600.0192     2924.207 
  114000    312.27331    7331.1953   -1600.0108     2924.207 
  115000    281.90663     16202.17   -1600.0101     2924.207 
  116000    294.37206    3924.8284   -1600.0109     2924.207 
  117000     311.5217    14339.145   -1600.0148     2924.207 
  118000    284.30178    10838.884   -1600.0141     2924.207 
  119000    305.95312    14581.576   -1600.0157     2924.207 
  120000    303.39612     10388.28   -1600.0143     2924.207 
  121000    284.16411    20160.337   -1600.0194     2924.207 
  122000     304.7639    9279.1987    -1600.015     2924.207 
  123000    283.22149    18189.651   -1600.0195     2924.207 
  124000    279.87851    11487.393   -1600.0213     2924.207 
  125000    307.60942    14381.324   -1600.0156     2924.207 
  126000    307.03478    7151.1288   -1600.0166     2924.207 
  127000    288.04683    15946.814   -1600.0197     2924.207 
  128000    295.73106    12612.456   -1600.0164     2924.207 
  129000    273.67153     9673.562   -1600.0065     2924.207 
  130000    274.59905    15744.944   -1600.0151     2924.207 
  131000    315.63363    13178.626   -1600.0241     2924.207 
  132000    288.21913    8958.0041   -1600.0126     2924.207 
  133000    279.53764    14847.381   -1600.0136     2924.207 
  134000    295.07766    14592.243   -1600.0176     2924.207 
  135000    277.39778    18386.193     -1600.02     2924.207 
  136000    289.91944    9480.0674   -1600.0173     2924.207 
  137000    305.43512    14544.271   -1600.0166     2924.207 
  138000    293.22259    16764.706   -1600.0215     2924.207 
  139000    282.61212    13345.366    -1600.014     2924.207 
  140000    282.36285    13327.375   -1600.0147     2924.207 
  141000     277.0061     21585.54   -1600.0125     2924.207 
  142000    303.53546    9467.1363   -1600.0166     2924.207 
  143000    263.86922     11898.57   -1600.0139     2924.207 
  144000    292.58482    15571.054   -1600.0161     2924.207 
  145000    281.44023    13626.614   -1600.0186     2924.207 
  146000    299.55652    6797.2895   -1600.0149     2924.207 
  147000    237.63857    25527.492   -1600.0158     2924.207 
  148000    292.74796    10517.021   -1600.0111     2924.207 
  149000    258.81574    16583.467    -1600.013     2924.207 
  150000     282.4984    13779.163   -1600.0211     2924.207 
  151000    269.62475    22493.396   -1600.0182     2924.207 
  152000    258.47369    20565.435   -1600.0157     2924.207 
  153000    279.56581    12403.469   -1600.0168     2924.207 
  154000    275.09858    14984.996   -1600.0226     2924.207 
  155000    262.80266    13805.748   -1600.0099     2924.207 
  156000    260.07717    15757.326   -1600.0077     2924.207 
  157000    270.60323    18978.759   -1600.0172     2924.207 
  158000     275.4256    17227.756   -1600.0109     2924.207 
  159000     306.9432    7601.2844    -1600.018     2924.207 
  160000    246.25168    18571.135   -1600.0111     2924.207 
  161000     304.6563    7949.2325   -1600.0209     2924.207 
  162000    273.18338     21044.77   -1600.0158     2924.207 
  163000    291.77748    10578.885   -1600.0178     2924.207 
  164000    275.21587    17193.895   -1600.0117     2924.207 
  165000     276.1647    6903.3297   -1600.0159     2924.207 
  166000    285.80789    11945.752   -1600.0104     2924.207 
  167000     284.1957    20839.694   -1600.0128     2924.207 
  168000    291.86045    9036.0898   -1600.0168     2924.207 
  169000    271.91456    15559.001   -1600.0099     2924.207 
  170000    291.63504    8179.8615   -1600.0189     2924.207 
  171000    280.93543    21882.956   -1600.0157     2924.207 
  172000    295.82262    7433.7086   -1600.0099     2924.207 
  173000    298.90692    18506.027   -1600.0129     2924.207 
  174000    301.66191    9244.3777    -1600.021     2924.207 
  175000    276.77785    15845.414   -1600.0129     2924.207 
  176000    300.71858     10307.53    -1600.018     2924.207 
  177000    272.91305    13132.127   -1600.0099     2924.207 
  178000    299.37534    13979.037   -1600.0103     2924.207 
  179000    270.74369    10112.574   -1600.0198     2924.207 
  180000    267.12857    16809.656   -1600.0176     2924.207 
  181000     283.6493    11511.258   -1600.0124     2924.207 
  182000    320.83318    6217.1496   -1600.0168     2924.207 
  183000    266.14081    19225.315    -1600.016     2924.207 
  184000     283.8432    14172.135   -1600.0171     2924.207 
  185000     298.7812    5334.6088   -1600.0121     2924.207 
  186000    296.53713    16604.901   -1600.0132     2924.207 
  187000    275.98409    10260.906   -1600.0136     2924.207 
  188000    298.25722     17102.33   -1600.0133     2924.207 
  189000    291.22374    8571.2151   -1600.0148     2924.207 
  190000    300.24171    12112.996   -1600.0156     2924.207 
  191000     300.1122    11861.878   -1600.0175     2924.207 
  192000    295.53483    12814.928    -1600.024     2924.207 
  193000    315.42236     9890.051   -1600.0197     2924.207 
  194000    287.27045    13096.889   -1600.0181     2924.207 
  195000    284.68563    13138.883   -1600.0084     2924.207 
  196000    277.05097    11956.236   -1600.0073     2924.207 
  197000    287.90304    13881.823   -1600.0221     2924.207 
  198000    297.25814    12685.635   -1600.0091     2924.207 
  199000      297.813    11778.542   -1600.0172     2924.207 
  200000     290.2972    12064.162   -1600.0086     2924.207 
Loop time of 663.663 on 2 procs for 100000 steps with 240 atoms

Pair  time (%) = 633.093 (95.3937)
Bond  time (%) = 0.025912 (0.0039044)
Neigh time (%) = 3.54828 (0.534651)
Comm  time (%) = 25.6455 (3.86424)
Outpt time (%) = 0.00352931 (0.000531792)
Other time (%) = 1.34702 (0.202967)

Nlocal:    120 ave 125 max 115 min
Histogram: 1 0 0 0 0 0 0 0 0 1
Nghost:    5088 ave 5116 max 5060 min
Histogram: 1 0 0 0 0 0 0 0 0 1
Neighs:    45561.5 ave 47188 max 43935 min
Histogram: 1 0 0 0 0 0 0 0 0 1
FullNghs:  91123 ave 94406 max 87840 min
Histogram: 1 0 0 0 0 0 0 0 0 1

Total # of neighbors = 182246
Ave neighs/atom = 759.358
Ave special neighs/atom = 0
Neighbor list builds = 816
Dangerous builds = 0
#	run             	10000
	unfix 			1
#--------------------------------------------------------------------------
#kappa
#--------------------------------------------------------------------------
log 	log_kappa_${iseed}.lammps
log 	log_kappa_5.lammps
