#	reset_timestep  	0
	fix 			1 all nve

	compute		keSource all ke/atom
	compute		keSource2 all atom/molecule c_keSource
	compute		keSink all ke/atom
	compute		keSink2 all atom/molecule c_keSink
	fix		cRes hSink heat 1 -${heat}
	fix		cRes hSink heat 1 -0.02
	fix		hRes hSource heat 1 ${heat}
	fix		hRes hSource heat 1 0.02
	fix		3 moving ave/time 10 100 1000 c_movingTemp
    	thermo_style	custom step c_movingTemp press etotal pe ke vol

	fix 		kemolSource all ave/time 10 100 1000 c_keSource2 file kemolSource.txt mode vector
	fix 		kemolSink all ave/time 10 100 1000 c_keSink2 file kemolSink.txt mode vector
	
	compute 		myDis all msd 
	thermo_style 		custom step temp press vol c_myDis[4] c_movingTemp 
	thermo			1000
	timestep		${dt}
	timestep		0.001
	run			3000000
WARNING: More than one compute ke/atom
WARNING: More than one compute ke/atom
Memory usage per processor = 3.97196 Mbytes
Step Temp Press Volume myDis[4] movingTe 
  200000     259.9769    19060.294     2924.207 2.3928983e-30     259.9769 
  201000    297.42971    8542.5295     2924.207    10.242335    297.42971 
  202000    283.55173    10885.736     2924.207    28.073895    283.55173 
  203000    265.19956    20259.853     2924.207    35.621034    265.19956 
  204000    286.50504    4752.6293     2924.207     28.21621    286.50504 
  205000    296.05857     12481.69     2924.207    15.613879    296.05857 
  206000    303.25539    16915.809     2924.207    15.000735    303.25539 
  207000    282.35444    13787.551     2924.207    25.594163    282.35444 
  208000    278.24856    19438.919     2924.207    31.072237    278.24856 
  209000    319.33621    4212.8229     2924.207     29.65879    319.33621 
  210000    280.09585    18574.948     2924.207    29.826009    280.09585 
  211000    245.83416    12507.044     2924.207    25.147455    245.83416 
  212000    315.83235    14711.996     2924.207    19.765307    315.83235 
  213000    296.09695    4574.8046     2924.207    22.753576    296.09695 
  214000    254.16531    12074.958     2924.207    27.709825    254.16531 
  215000    287.09399    11322.226     2924.207    25.844843    287.09399 
  216000    262.89408    13938.764     2924.207    23.825473    262.89408 
  217000    292.09899    8843.9909     2924.207    27.683247    292.09899 
  218000    273.58589    11998.362     2924.207    29.347135    273.58589 
  219000    288.56315    17393.666     2924.207    29.741235    288.56315 
  220000    272.04717      9825.13     2924.207    30.966186    272.04717 
  221000    271.53449    13812.472     2924.207     31.53627    271.53449 
  222000    305.65199    15295.886     2924.207    29.535461    305.65199 
  223000    270.77752    6887.5802     2924.207    28.955663    270.77752 
  224000    278.55628    19089.625     2924.207    31.448402    278.55628 
  225000    269.09456    16430.037     2924.207    34.061501    269.09456 
  226000    292.11248    14282.021     2924.207    31.646067    292.11248 
  227000    275.16245    21353.064     2924.207    28.619411    275.16245 
  228000    254.92358    15077.176     2924.207    27.036557    254.92358 
  229000    251.56076    20239.106     2924.207    29.856218    251.56076 
  230000    303.64705    15521.212     2924.207     30.66135    303.64705 
  231000    305.14942    6353.7824     2924.207    29.021217    305.14942 
  232000    273.25372    10787.253     2924.207    30.755114    273.25372 
  233000    258.79272    22407.887     2924.207    33.622821    258.79272 
  234000    272.81794    9768.4067     2924.207    34.034857    272.81794 
  235000    278.27878    14417.986     2924.207    32.018371    278.27878 
  236000    294.58009    8471.1139     2924.207    28.783832    294.58009 
  237000    264.27564    17293.757     2924.207    27.061135    264.27564 
  238000    252.65084    15535.367     2924.207    29.172065    252.65084 
  239000    273.32779    18698.458     2924.207    29.808329    273.32779 
  240000    298.24011    10654.243     2924.207    27.794168    298.24011 
  241000    265.49249     15610.01     2924.207     28.90894    265.49249 
  242000    265.79453    17122.243     2924.207    34.049879    265.79453 
  243000    289.52308    11209.221     2924.207    34.004921    289.52308 
  244000    260.03882    9113.7411     2924.207    29.063994    260.03882 
  245000    240.36127    14414.736     2924.207    25.767202    240.36127 
  246000    253.14077    7531.9563     2924.207    29.548319    253.14077 
  247000    289.90147    10295.213     2924.207    34.973735    289.90147 
  248000    298.27591    5046.5571     2924.207    33.507744    298.27591 
  249000    263.82995    16574.429     2924.207    25.740264    263.82995 
  250000    276.49504    16018.779     2924.207    20.489556    276.49504 
  251000    271.10345    6908.5238     2924.207    22.848878    271.10345 
  252000    263.93599    15832.699     2924.207     27.54895    263.93599 
  253000    282.02604    8264.1631     2924.207    27.161208    282.02604 
  254000     276.0597    18009.539     2924.207    26.464151     276.0597 
  255000    280.68376    9943.0437     2924.207       28.512    280.68376 
  256000    282.01995    9519.7745     2924.207    30.126849    282.01995 
  257000    292.77687     12523.39     2924.207     32.48696    292.77687 
  258000    264.98566    13095.705     2924.207    32.214695    264.98566 
  259000    285.65798    20364.958     2924.207    30.031448    285.65798 
  260000    292.03142    6330.5803     2924.207    30.619514    292.03142 
  261000    276.45056    5424.6791     2924.207    31.555256    276.45056 
  262000    257.54792    27655.621     2924.207    28.619001    257.54792 
  263000    281.50627    1458.0874     2924.207    24.983757    281.50627 
  264000    274.21917    21277.375     2924.207    26.011633    274.21917 
  265000    277.52202    8205.4114     2924.207    25.833347    277.52202 
  266000     289.5081    14608.093     2924.207    22.829553     289.5081 
  267000    295.48364    7505.7738     2924.207    24.922303    295.48364 
  268000     280.9849    10477.211     2924.207    30.985304     280.9849 
  269000    268.26456    7003.6731     2924.207    31.086553    268.26456 
  270000    282.77748      10074.6     2924.207     26.35966    282.77748 
  271000    286.20445    16488.018     2924.207    24.106788    286.20445 
  272000    277.87116     12647.62     2924.207    25.543314    277.87116 
  273000    291.64372    11154.755     2924.207    28.400271    291.64372 
  274000    284.79022     7804.947     2924.207    30.579085    284.79022 
  275000    282.52393     10943.57     2924.207    29.568229    282.52393 
  276000    277.84298      11099.7     2924.207    25.861133    277.84298 
  277000    289.63461    8175.1541     2924.207    20.715273    289.63461 
  278000    281.36919    14392.004     2924.207    25.769749    281.36919 
  279000    282.60563     13747.03     2924.207    32.252076    282.60563 
  280000    280.26517    3992.9372     2924.207    30.653939    280.26517 
  281000    277.96434    7880.8913     2924.207    29.143028    277.96434 
  282000    280.73293    15367.009     2924.207    27.481192    280.73293 
  283000    272.18122    6851.1852     2924.207    29.569158    272.18122 
  284000    285.54336    13508.355     2924.207    33.585296    285.54336 
  285000    295.06995    3170.4327     2924.207    36.238808    295.06995 
  286000    281.88793    5821.5387     2924.207    33.295531    281.88793 
  287000    279.91642    18916.163     2924.207     30.78541    279.91642 
  288000    280.38292    7803.5115     2924.207    28.666823    280.38292 
  289000    261.31579    17552.176     2924.207    28.757435    261.31579 
  290000    276.83826    12051.907     2924.207    30.693614    276.83826 
  291000    238.03152    13837.008     2924.207    31.720552    238.03152 
  292000    279.15654    7590.4268     2924.207    31.180104    279.15654 
  293000    281.57777    14481.332     2924.207    28.485845    281.57777 
  294000    259.29083    20416.515     2924.207    24.358279    259.29083 
  295000    271.66465   -1163.0771     2924.207    26.611224    271.66465 
  296000    280.02409    21654.739     2924.207    31.619276    280.02409 
  297000    283.53416    9305.0277     2924.207    32.742428    283.53416 
  298000    282.72463    9441.1105     2924.207     31.42155    282.72463 
  299000    278.47257      12580.4     2924.207    30.540783    278.47257 
  300000    274.68519    6695.5288     2924.207    26.806186    274.68519 
  301000     257.9713    13074.428     2924.207    22.787206     257.9713 
  302000    282.88318    8986.8989     2924.207     22.54488    282.88318 
  303000    247.96251    20828.087     2924.207    24.339047    247.96251 
  304000    297.92221    8212.3515     2924.207    24.771063    297.92221 
  305000    286.25766    12235.464     2924.207    23.043516    286.25766 
  306000    267.43166    15170.771     2924.207    25.938932    267.43166 
  307000    266.52528    6329.4266     2924.207    33.038426    266.52528 
  308000    281.34351    14990.715     2924.207    34.298272    281.34351 
  309000    263.91584    7037.0336     2924.207    24.801046    263.91584 
  310000    302.33946    15190.138     2924.207    20.405638    302.33946 
  311000    276.24879    7439.1201     2924.207    24.376795    276.24879 
  312000    292.47341    10493.596     2924.207    27.564006    292.47341 
  313000    281.22048    9826.9251     2924.207    27.601645    281.22048 
  314000    284.07159    7398.4802     2924.207     24.20413    284.07159 
  315000    283.75652    1971.6633     2924.207    23.127791    283.75652 
  316000    280.70727    11829.951     2924.207     26.72504    280.70727 
  317000    268.37035    9392.3602     2924.207    32.604127    268.37035 
  318000    281.98954    14335.156     2924.207     32.48896    281.98954 
  319000    269.09895    12408.432     2924.207    23.278361    269.09895 
  320000    291.32778    10353.681     2924.207    17.185319    291.32778 
  321000    268.56365    3984.2801     2924.207    17.311775    268.56365 
  322000    267.90388    18558.326     2924.207    22.593651    267.90388 
  323000    303.21435    5942.2496     2924.207    26.765427    303.21435 
  324000    265.22472     16142.32     2924.207    26.314451    265.22472 
  325000    268.66809    11832.258     2924.207    27.672154    268.66809 
  326000    284.86093    7043.4346     2924.207     29.06925    284.86093 
  327000    283.42197    16853.402     2924.207    28.174815    283.42197 
  328000    272.14395    8159.9752     2924.207    26.887254    272.14395 
  329000    294.34541    5614.1818     2924.207    28.231139    294.34541 
  330000    280.23601    13783.121     2924.207    24.871241    280.23601 
  331000    284.88529    9440.3707     2924.207    23.093028    284.88529 
  332000    287.04797    13648.085     2924.207    25.251682    287.04797 
  333000    281.86962    6063.0286     2924.207    24.408876    281.86962 
  334000    285.69134    12729.982     2924.207    19.728402    285.69134 
  335000    281.95501     4865.823     2924.207    20.209328    281.95501 
  336000     270.8234    21236.611     2924.207    21.982035     270.8234 
  337000    286.64749    3694.7058     2924.207    20.829638    286.64749 
  338000    290.54203    11959.723     2924.207    19.212196    290.54203 
  339000    290.22967    14008.084     2924.207    25.979817    290.22967 
  340000    266.32159    2783.0255     2924.207    27.829649    266.32159 
  341000    283.65551    14750.383     2924.207    20.823679    283.65551 
  342000    288.01678   -2135.8184     2924.207    19.950013    288.01678 
  343000    282.66744    15832.213     2924.207     27.86479    282.66744 
  344000    286.53863      11566.8     2924.207    29.290328    286.53863 
  345000    274.60409    9546.1106     2924.207    21.012398    274.60409 
  346000     260.6184    13088.722     2924.207    17.787373     260.6184 
  347000    274.11253    11399.488     2924.207    21.942252    274.11253 
  348000    286.86325    6379.7609     2924.207    21.852017    286.86325 
  349000    263.60883    13427.699     2924.207    20.860278    263.60883 
  350000    298.11071    14843.995     2924.207    26.645408    298.11071 
  351000    266.99981    12290.075     2924.207    31.101486    266.99981 
  352000    265.09579    11435.112     2924.207    26.870684    265.09579 
  353000    290.37623    14773.412     2924.207     18.89883    290.37623 
  354000    276.45768    11511.319     2924.207    14.499659    276.45768 
  355000     256.6909     8630.118     2924.207    17.256376     256.6909 
  356000    269.51736     13945.93     2924.207    25.443212    269.51736 
  357000    259.07579    10739.317     2924.207    30.984081    259.07579 
  358000    279.05302    10765.012     2924.207    32.240787    279.05302 
  359000    265.13153    8166.1283     2924.207     34.12407    265.13153 
  360000    253.10945    15342.127     2924.207    34.330079    253.10945 
  361000    263.39467    11011.063     2924.207    31.694127    263.39467 
  362000    266.92093    11505.254     2924.207    30.150419    266.92093 
  363000    261.45974    7646.7369     2924.207    32.253757    261.45974 
  364000    263.62227    10581.846     2924.207    33.521492    263.62227 
  365000    254.55372     17006.69     2924.207    30.889374    254.55372 
  366000    267.15322    11874.632     2924.207    29.122896    267.15322 
  367000    252.69068    14703.914     2924.207    30.759421    252.69068 
  368000    266.87381    11438.274     2924.207    31.162098    266.87381 
  369000    256.45474    10464.813     2924.207    30.826696    256.45474 
  370000    296.66182    2190.6694     2924.207    29.295455    296.66182 
  371000    265.28961    13697.631     2924.207     27.64015    265.28961 
  372000    273.80442    10501.174     2924.207    26.588706    273.80442 
  373000    262.79584    14428.479     2924.207    29.287129    262.79584 
  374000    269.76237    9124.6722     2924.207    32.632007    269.76237 
  375000    259.46475    20521.202     2924.207    33.315074    259.46475 
  376000    283.67952    4361.4087     2924.207    32.794739    283.67952 
  377000    274.62193    13589.811     2924.207    33.047097    274.62193 
  378000    267.87749    15951.077     2924.207    33.226724    267.87749 
  379000     267.4417    3088.7555     2924.207    32.444156     267.4417 
  380000    285.07999    5556.8968     2924.207    32.478912    285.07999 
  381000    265.14583    15092.673     2924.207      32.4541    265.14583 
  382000    298.17022    7530.4596     2924.207    33.016547    298.17022 
  383000    262.42695     11908.77     2924.207    34.382879    262.42695 
  384000    266.79173        10896     2924.207    35.106617    266.79173 
  385000     280.8061      5196.54     2924.207    33.154599     280.8061 
  386000    276.94777    14102.802     2924.207     30.19829    276.94777 
  387000    266.65019    10901.027     2924.207    27.905901    266.65019 
  388000    280.95873   -2805.7744     2924.207    28.480417    280.95873 
  389000    287.69221    20971.288     2924.207    26.927647    287.69221 
  390000    256.42679    6432.1101     2924.207    25.641026    256.42679 
  391000    260.39129    4958.7938     2924.207    25.492288    260.39129 
  392000    278.33541    14151.326     2924.207     25.23879    278.33541 
  393000    277.67672    15481.619     2924.207    23.489124    277.67672 
  394000    279.77442    1183.3396     2924.207    21.824324    279.77442 
  395000    260.79558    13971.446     2924.207    19.525104    260.79558 
  396000    283.08612    4022.1465     2924.207    19.411737    283.08612 
  397000    262.44477    13016.534     2924.207    18.068636    262.44477 
  398000    278.01566    5623.3808     2924.207    18.950002    278.01566 
  399000    266.83432    8719.3327     2924.207    24.186881    266.83432 
  400000    268.81404    14429.881     2924.207    28.682787    268.81404 
  401000    274.14561    3935.0695     2924.207    31.161427    274.14561 
  402000    275.93374    6293.0231     2924.207    31.319805    275.93374 
  403000    263.81594    20100.766     2924.207    28.526183    263.81594 
  404000    281.90055    9274.4269     2924.207    24.658997    281.90055 
  405000    286.86152    8091.2427     2924.207    21.469063    286.86152 
  406000    276.80125    8101.6958     2924.207    23.133249    276.80125 
  407000     265.5461    12994.416     2924.207    27.508959     265.5461 
  408000    271.54071    5685.7381     2924.207    30.551493    271.54071 
  409000    290.92215    6766.8255     2924.207    30.905248    290.92215 
  410000     281.3671    14368.043     2924.207    33.018041     281.3671 
  411000    269.89902    5370.9409     2924.207     32.19876    269.89902 
  412000    264.91361    7073.6355     2924.207    28.357859    264.91361 
  413000    277.26265    12006.038     2924.207    27.283762    277.26265 
  414000     255.0337    10484.654     2924.207    28.681261     255.0337 
  415000    265.84568    8071.3029     2924.207    30.135852    265.84568 
  416000    270.01345    15720.942     2924.207    31.034389    270.01345 
  417000    268.99605    10275.093     2924.207    28.456401    268.99605 
  418000    269.73028    13852.481     2924.207    24.390343    269.73028 
  419000     271.7361    4661.3706     2924.207    18.516661     271.7361 
  420000     265.0375    12470.279     2924.207    14.865718     265.0375 
  421000     249.1065    17220.059     2924.207    15.294581     249.1065 
  422000     269.8227    5630.3384     2924.207    19.869561     269.8227 
  423000    252.03995    12322.865     2924.207    26.602167    252.03995 
  424000    266.30409      17550.1     2924.207    30.570331    266.30409 
  425000    276.80748    7880.2912     2924.207    29.253971    276.80748 
  426000    250.02914     19507.34     2924.207    27.058557    250.02914 
  427000     258.9063    4197.5219     2924.207    25.132231     258.9063 
  428000    248.45828    12298.087     2924.207    23.544233    248.45828 
  429000    254.13285    12522.656     2924.207    24.303125    254.13285 
  430000     273.5431    9863.6386     2924.207    25.286749     273.5431 
  431000    246.83885     14200.19     2924.207    26.519382    246.83885 
  432000    271.58714     14468.37     2924.207    26.174892    271.58714 
  433000     246.5858    6784.8537     2924.207    25.964134     246.5858 
  434000    269.00369    13914.351     2924.207    24.006825    269.00369 
  435000    263.18036     10619.86     2924.207    21.903521    263.18036 
  436000    256.83304    836.45932     2924.207    21.886752    256.83304 
  437000    256.27565    21212.494     2924.207    21.854298    256.27565 
  438000    267.20864    12121.733     2924.207    24.662202    267.20864 
  439000    253.83948    9149.6602     2924.207    28.871966    253.83948 
  440000    272.17214    6987.5542     2924.207    29.689841    272.17214 
  441000    256.67753    10462.871     2924.207    28.846278    256.67753 
  442000    260.41527    12786.095     2924.207     27.58206    260.41527 
  443000    253.65844    10755.653     2924.207    26.549269    253.65844 
  444000    253.30323    9901.9839     2924.207    29.355568    253.30323 
  445000    261.22375     9670.265     2924.207    30.833539    261.22375 
  446000    263.30843    9993.7866     2924.207    33.141206    263.30843 
  447000    256.11029    3153.7917     2924.207    33.104831    256.11029 
  448000    246.77571    5733.2452     2924.207    30.346922    246.77571 
  449000    280.87675    9746.9928     2924.207    27.907313    280.87675 
  450000    254.30674    10144.508     2924.207    22.380179    254.30674 
  451000    255.56143    11598.146     2924.207    16.455515    255.56143 
  452000    257.81683     8102.561     2924.207     15.27472    257.81683 
  453000    266.23246    10208.702     2924.207    18.077279    266.23246 
  454000    251.67781    16219.306     2924.207    22.074617    251.67781 
  455000    262.90491    14707.752     2924.207    26.044045    262.90491 
  456000    264.21521    5153.0493     2924.207    27.642293    264.21521 
  457000    257.82456    14387.104     2924.207     25.84786    257.82456 
  458000    253.72598    13395.963     2924.207    22.555662    253.72598 
  459000    259.06365    7811.3135     2924.207    20.849397    259.06365 
  460000    254.33506    8723.9096     2924.207    18.850105    254.33506 
  461000    265.26791    7644.2632     2924.207    19.332529    265.26791 
  462000    255.33758    16276.294     2924.207    23.577294    255.33758 
  463000    260.03754   -1791.2789     2924.207    27.800883    260.03754 
  464000    267.91612    13194.391     2924.207    29.153046    267.91612 
  465000    275.70426    12478.733     2924.207    26.869316    275.70426 
  466000    245.19843    11203.319     2924.207    26.442297    245.19843 
  467000    268.10688    9527.8996     2924.207    29.371737    268.10688 
  468000    251.85704    8516.7482     2924.207     32.03057    251.85704 
  469000    284.84368    10899.041     2924.207    34.134447    284.84368 
  470000    242.62987    9032.7743     2924.207    32.824161    242.62987 
  471000    276.87686     14170.58     2924.207    29.633973    276.87686 
  472000    273.90612    2583.3234     2924.207    27.314865    273.90612 
  473000    269.47028    12892.452     2924.207    28.543399    269.47028 
  474000    249.89385    13121.501     2924.207    31.544077    249.89385 
  475000    254.83462    5500.8916     2924.207    30.364689    254.83462 
  476000    257.32752    11190.451     2924.207    26.812698    257.32752 
  477000    270.93085    12228.312     2924.207    23.873761    270.93085 
  478000    255.07501    9163.1486     2924.207    23.764266    255.07501 
  479000    262.44453    19955.586     2924.207    23.016454    262.44453 
  480000    265.42732    7890.0486     2924.207    23.983252    265.42732 
  481000     269.5745   -1436.7747     2924.207    25.531621     269.5745 
  482000    263.45556     11375.21     2924.207     27.96552    263.45556 
  483000    271.29955    10095.743     2924.207    30.885278    271.29955 
  484000    265.56849    9298.2238     2924.207    30.488401    265.56849 
  485000    275.08017     11488.36     2924.207    30.258812    275.08017 
  486000    262.21743     5817.973     2924.207    28.966918    262.21743 
  487000    279.65436    8398.7696     2924.207     28.50175    279.65436 
  488000    284.22306    9032.2881     2924.207    28.825593    284.22306 
  489000     279.7619    3548.6829     2924.207     28.61191     279.7619 
  490000    282.04663    10870.883     2924.207    25.605033    282.04663 
  491000    270.90534    2737.1748     2924.207    24.507111    270.90534 
  492000    264.49918     9943.324     2924.207    25.398322    264.49918 
  493000    279.71042     9090.662     2924.207    26.326873    279.71042 
  494000    257.88411    11511.365     2924.207    26.230803    257.88411 
  495000    267.54306    10604.636     2924.207    27.586443    267.54306 
  496000    273.99097    13164.417     2924.207     30.36616    273.99097 
  497000    270.25121   -2394.0764     2924.207    31.902982    270.25121 
  498000    251.94679    16578.172     2924.207    29.349168    251.94679 
  499000    287.28623    6128.0909     2924.207     26.96197    287.28623 
  500000    284.26536    2605.7634     2924.207    30.518972    284.26536 
  501000    275.70097    16769.303     2924.207    32.963542    275.70097 
  502000    273.44622    2605.2673     2924.207    28.217277    273.44622 
  503000    285.85477     6599.682     2924.207    21.446976    285.85477 
  504000    273.84209    16437.787     2924.207     21.37675    273.84209 
  505000     270.3661    9783.6011     2924.207    27.480466     270.3661 
  506000    269.30238    2459.5813     2924.207    30.528212    269.30238 
  507000       284.39    14079.995     2924.207    26.203832       284.39 
  508000    259.10339    9747.8623     2924.207    22.536055    259.10339 
  509000     272.6709    11122.628     2924.207    23.082462     272.6709 
  510000    281.00864    7788.9233     2924.207    27.034804    281.00864 
  511000    291.94317    9192.5159     2924.207    29.458906    291.94317 
  512000    304.49995    1101.5663     2924.207    30.608477    304.49995 
  513000    264.33543    8481.4546     2924.207    29.319858    264.33543 
  514000    265.86604     14126.99     2924.207    26.022088    265.86604 
  515000    251.35809    9118.3848     2924.207    24.005678    251.35809 
  516000    271.11811    11002.062     2924.207    24.427711    271.11811 
  517000    273.82839    4325.4357     2924.207    25.435573    273.82839 
  518000     273.5297    14391.916     2924.207    23.583238     273.5297 
  519000    254.79656    7311.1088     2924.207    22.167556    254.79656 
  520000    264.09361    9653.0179     2924.207    25.174378    264.09361 
  521000    258.74028    9151.8917     2924.207    27.908308    258.74028 
  522000    251.66978    9017.8566     2924.207    26.374529    251.66978 
  523000    269.01876    3218.5429     2924.207    21.717974    269.01876 
  524000    282.74038    4461.8806     2924.207    18.641928    282.74038 
  525000    265.57951    7016.2721     2924.207    21.456241    265.57951 
  526000    261.78884    10673.412     2924.207    25.897163    261.78884 
  527000    267.51776    11579.127     2924.207    27.760219    267.51776 
  528000    282.97904    8079.4388     2924.207    26.721483    282.97904 
  529000    256.46714    2704.0893     2924.207    24.679149    256.46714 
  530000    279.48064     13225.58     2924.207    26.328007    279.48064 
  531000    269.77449    7691.4408     2924.207    28.655916    269.77449 
  532000    259.16489    3714.7271     2924.207    31.386945    259.16489 
  533000     259.2922    12538.575     2924.207    29.892325     259.2922 
  534000    264.71561    3164.5532     2924.207    25.583567    264.71561 
  535000    264.86837    10058.537     2924.207    23.607033    264.86837 
  536000    269.44027    17640.986     2924.207    24.756338    269.44027 
  537000    277.01665     667.4717     2924.207    28.367475    277.01665 
  538000    268.55068    14099.795     2924.207    32.073221    268.55068 
  539000    269.31992    10703.275     2924.207    32.127086    269.31992 
  540000    269.31564    5528.1673     2924.207    30.388325    269.31564 
  541000    283.12609    16660.829     2924.207    26.833512    283.12609 
  542000    255.81539     1210.067     2924.207     22.57728    255.81539 
  543000    285.98407    11701.834     2924.207    21.998088    285.98407 
  544000    247.42293    5781.3079     2924.207    23.914092    247.42293 
  545000     264.3388    13090.711     2924.207     27.42734     264.3388 
  546000    262.08038    8629.9523     2924.207    30.104779    262.08038 
  547000    264.54572     5048.595     2924.207    29.454382    264.54572 
  548000    276.69865    487.24023     2924.207    24.320653    276.69865 
  549000    269.95877    11603.056     2924.207    19.707171    269.95877 
  550000     260.1404    7383.0342     2924.207    22.977249     260.1404 
  551000    284.19207    6492.5851     2924.207    29.125154    284.19207 
  552000    259.93144    11384.906     2924.207    31.829094    259.93144 
  553000     253.6011    3365.2004     2924.207     30.28269     253.6011 
  554000    264.25251    10169.065     2924.207    28.067736    264.25251 
  555000    264.17425    8544.6292     2924.207    29.009011    264.17425 
  556000    263.75765    9017.2929     2924.207    29.301409    263.75765 
  557000    263.38441    3178.9797     2924.207    28.435121    263.38441 
  558000    255.08119    12022.083     2924.207    29.646942    255.08119 
  559000    253.01465    6156.2969     2924.207    32.881621    253.01465 
  560000    263.25356    9147.0338     2924.207    34.807046    263.25356 
  561000    280.13438    10484.679     2924.207    32.930822    280.13438 
  562000    258.50062    5507.2143     2924.207    27.625545    258.50062 
  563000    249.58533    9772.9457     2924.207    25.841825    249.58533 
  564000    284.39039    7622.3927     2924.207    30.019187    284.39039 
  565000    274.90515    5751.9765     2924.207    34.403078    274.90515 
  566000    273.20773    12304.406     2924.207    34.820902    273.20773 
  567000    273.81784    8464.7616     2924.207    31.474097    273.81784 
  568000    266.25894     4985.567     2924.207    26.650699    266.25894 
  569000    272.10239    12024.622     2924.207    23.098006    272.10239 
  570000    250.47762     4200.618     2924.207    24.207942    250.47762 
  571000    263.30309    14334.011     2924.207    28.355258    263.30309 
  572000    250.66881    3324.9929     2924.207     33.34672    250.66881 
  573000    281.75789    10634.785     2924.207    35.782837    281.75789 
  574000    271.82672     5732.889     2924.207    33.106917    271.82672 
  575000    246.58728    8733.6645     2924.207    27.379278    246.58728 
  576000    255.63651     14587.21     2924.207    24.446768    255.63651 
  577000    288.39146    10019.353     2924.207    26.305639    288.39146 
  578000    281.77537    39.001418     2924.207    31.169544    281.77537 
  579000    271.23305     7689.244     2924.207    35.333063    271.23305 
  580000    258.59373    12607.423     2924.207    35.069341    258.59373 
  581000     271.2679    9588.5427     2924.207    30.971781     271.2679 
  582000    256.82244    8298.5834     2924.207    25.589794    256.82244 
  583000    260.45425    3698.3579     2924.207    21.007578    260.45425 
  584000    248.14481    11145.919     2924.207    21.142278    248.14481 
  585000     270.8776    9012.0646     2924.207    24.314608     270.8776 
  586000    254.01946    5028.9949     2924.207    28.023369    254.01946 
  587000    270.25296    8095.6117     2924.207    31.605125    270.25296 
  588000      262.879    13400.604     2924.207    32.756242      262.879 
  589000    281.56291   -2208.7842     2924.207    33.806375    281.56291 
  590000    263.00275    14614.115     2924.207    34.574409    263.00275 
  591000    258.71828    4261.9105     2924.207    35.314152    258.71828 
  592000    254.24799     7161.149     2924.207    34.512182    254.24799 
  593000    272.86467    7269.6468     2924.207    33.027446    272.86467 
  594000    256.00279    14005.662     2924.207    30.897138    256.00279 
  595000    268.41912    3774.6162     2924.207    29.190415    268.41912 
  596000    283.74878    8672.2272     2924.207    28.232026    283.74878 
  597000    266.76676    11119.353     2924.207    27.672742    266.76676 
  598000    249.91909    8629.2087     2924.207     27.19215    249.91909 
  599000    267.73058    5028.5567     2924.207    27.181219    267.73058 
  600000     274.6566    7380.2436     2924.207    26.102974     274.6566 
  601000    273.29762    13854.801     2924.207    25.384731    273.29762 
  602000    276.49956    4451.6738     2924.207     26.46991    276.49956 
  603000    266.85748    10097.883     2924.207    27.107588    266.85748 
  604000    260.31446    9914.8183     2924.207    27.650254    260.31446 
  605000     255.8832      8226.45     2924.207    28.054794     255.8832 
  606000    272.46402    12510.111     2924.207    27.475073    272.46402 
  607000    263.22429    6361.1542     2924.207    29.886164    263.22429 
  608000    280.12634    5620.0993     2924.207    31.981823    280.12634 
  609000    262.61541     10422.88     2924.207    31.930413    262.61541 
  610000    255.05716    5838.4573     2924.207    30.406972    255.05716 
  611000    264.25867    7582.1182     2924.207    28.103335    264.25867 
  612000    235.97319    10050.193     2924.207    27.609537    235.97319 
  613000    260.03812    6030.4051     2924.207    28.851875    260.03812 
  614000    273.12467    13637.897     2924.207    28.822566    273.12467 
  615000    281.47767    12027.081     2924.207    28.508381    281.47767 
  616000    261.65942    1103.2568     2924.207    27.880374    261.65942 
  617000     255.3801    16091.118     2924.207    24.457999     255.3801 
  618000    274.56622    7248.4118     2924.207    21.673734    274.56622 
  619000    265.75112     10340.66     2924.207    21.955609    265.75112 
  620000    258.98793    6494.8091     2924.207    25.840487    258.98793 
  621000    282.35351    10339.413     2924.207     29.73398    282.35351 
  622000     276.5412    1879.8979     2924.207    30.203842     276.5412 
  623000     257.7061    10967.327     2924.207    25.992307     257.7061 
  624000    258.50354    10520.805     2924.207    19.647733    258.50354 
  625000    268.61984    12335.136     2924.207    15.208173    268.61984 
  626000    266.23306    4974.8911     2924.207    16.111952    266.23306 
  627000     272.6336    7628.2777     2924.207    22.950211     272.6336 
  628000    257.12909    11172.891     2924.207    30.475087    257.12909 
  629000    256.95263     11760.58     2924.207      32.8889    256.95263 
  630000    273.50138    3973.4731     2924.207    31.414361    273.50138 
  631000    267.58476    6304.6671     2924.207    27.231042    267.58476 
  632000    275.02849    8096.3246     2924.207     20.98104    275.02849 
  633000    274.12752    16973.378     2924.207    21.596668    274.12752 
  634000    256.97725     8590.619     2924.207    24.835271    256.97725 
  635000    264.89995    9747.8666     2924.207      27.8522    264.89995 
  636000    269.45633    8044.3712     2924.207    29.286638    269.45633 
  637000    278.22272    5328.2517     2924.207    28.158198    278.22272 
  638000    250.48839    9015.9583     2924.207    26.796883    250.48839 
  639000    259.88988    8652.2565     2924.207    27.013977    259.88988 
  640000    268.27228    13217.471     2924.207    31.372205    268.27228 
  641000    264.39613    6605.1489     2924.207    34.526678    264.39613 
  642000    261.80976    9734.4192     2924.207    34.644838    261.80976 
  643000    269.28743    10879.081     2924.207    30.385572    269.28743 
  644000    260.04763    3333.9406     2924.207    24.611261    260.04763 
  645000    262.83031    7914.8067     2924.207    22.996189    262.83031 
  646000    257.35035    14041.155     2924.207    26.584805    257.35035 
  647000    252.74141    8735.0952     2924.207    28.198539    252.74141 
  648000    266.04884    8762.7797     2924.207    28.044504    266.04884 
  649000    277.64754    12694.823     2924.207    27.757847    277.64754 
  650000    261.16315    5739.6694     2924.207    25.466582    261.16315 
  651000    272.14493    5257.3662     2924.207     24.05835    272.14493 
  652000    276.05946    9470.4397     2924.207    24.173061    276.05946 
  653000    259.78346    7103.2358     2924.207    24.712729    259.78346 
  654000    250.91732    5968.7289     2924.207    25.764938    250.91732 
  655000    279.94946    11666.372     2924.207    26.011937    279.94946 
  656000    252.93964    10196.354     2924.207    26.575787    252.93964 
  657000     254.7698    9284.3349     2924.207    28.632816     254.7698 
  658000    264.08983    2006.1692     2924.207    29.735186    264.08983 
  659000     260.7784    15582.394     2924.207    29.145794     260.7784 
  660000    249.85284    7825.0821     2924.207    28.734195    249.85284 
  661000    253.02846    8567.7518     2924.207    28.210188    253.02846 
  662000    257.47739    8532.9753     2924.207    28.254427    257.47739 
  663000    282.46319    9819.6606     2924.207    30.035407    282.46319 
  664000    260.14706    7294.9822     2924.207    31.760452    260.14706 
  665000    274.34832    8036.3192     2924.207    31.654365    274.34832 
  666000     268.7322    2599.6408     2924.207    32.436658     268.7322 
  667000    262.75276    11709.144     2924.207     31.41004    262.75276 
  668000    265.64174    4392.6031     2924.207    28.260076    265.64174 
  669000    256.89358    11158.736     2924.207    25.005653    256.89358 
  670000     261.5454    11175.637     2924.207    24.006107     261.5454 
  671000    285.97528    3892.3121     2924.207    25.487266    285.97528 
  672000    268.58244    7283.8645     2924.207    27.542634    268.58244 
  673000    270.76889    7103.5123     2924.207     28.08036    270.76889 
  674000    259.75398    11321.987     2924.207    26.722786    259.75398 
  675000     291.8042    4443.1173     2924.207    26.386083     291.8042 
  676000    259.63064    12110.004     2924.207    29.402361    259.63064 
  677000    276.46837    4675.7281     2924.207    33.700887    276.46837 
  678000    262.11114    10625.831     2924.207      34.8304    262.11114 
  679000     257.1096     9724.334     2924.207    31.455367     257.1096 
  680000    261.85109    11396.746     2924.207    28.280879    261.85109 
  681000     256.9183    10885.379     2924.207    26.575614     256.9183 
  682000    271.25994     3006.074     2924.207    27.882802    271.25994 
  683000    269.90908    8099.3218     2924.207    31.316036    269.90908 
  684000     266.4826    8496.1314     2924.207    33.371189     266.4826 
  685000    254.78322    6526.7479     2924.207    32.138008    254.78322 
  686000    251.01316    9555.0562     2924.207    29.200544    251.01316 
  687000    265.41126    9073.6998     2924.207    27.026083    265.41126 
  688000    256.44472    8972.4383     2924.207    28.328211    256.44472 
  689000    288.14327    6943.0593     2924.207    32.487097    288.14327 
  690000    265.22338    8326.3675     2924.207    34.857961    265.22338 
  691000    259.63186    8227.3447     2924.207    33.112392    259.63186 
  692000    272.28838    7237.2105     2924.207    28.987666    272.28838 
  693000    264.72264    8025.6977     2924.207    25.262917    264.72264 
  694000    261.61333    1943.4604     2924.207    24.686132    261.61333 
  695000    254.15956    20508.303     2924.207    29.128692    254.15956 
  696000     265.9556    7349.8851     2924.207    33.807856     265.9556 
  697000    258.29419    3453.7099     2924.207    35.247313    258.29419 
  698000    260.89229     16610.48     2924.207    32.702845    260.89229 
  699000    247.67217     10554.63     2924.207    28.586278    247.67217 
  700000    279.18331    474.80666     2924.207    25.989513    279.18331 
  701000    274.15899    10806.979     2924.207    26.888347    274.15899 
  702000    247.40347    8626.4041     2924.207    30.688116    247.40347 
  703000    247.64373    -1968.342     2924.207    34.345955    247.64373 
  704000    263.92391    14351.184     2924.207    34.723527    263.92391 
  705000    279.41556    15800.454     2924.207    30.515058    279.41556 
  706000    259.16509   -144.38287     2924.207    26.199184    259.16509 
  707000    278.23276    12753.018     2924.207      27.4915    278.23276 
  708000    279.25165    7717.1339     2924.207     32.24431    279.25165 
  709000    273.17254    7970.9883     2924.207    35.274067    273.17254 
  710000    259.97592    10098.062     2924.207    31.538995    259.97592 
  711000    269.06475    7071.4275     2924.207    27.085012    269.06475 
  712000    263.18723    5993.8982     2924.207    28.664699    263.18723 
  713000    264.80165    12389.331     2924.207    31.288565    264.80165 
  714000    263.29352    7327.3143     2924.207    29.127928    263.29352 
  715000    248.19122    9067.1199     2924.207     27.75268    248.19122 
  716000    284.73865    9802.8491     2924.207    29.780719    284.73865 
  717000    255.94077    6903.4656     2924.207    33.218651    255.94077 
  718000    273.69501    9239.7857     2924.207    34.718485    273.69501 
  719000    253.65613    10679.736     2924.207    32.348118    253.65613 
  720000    268.72409    4124.8402     2924.207    28.906682    268.72409 
  721000    268.53497    5010.5868     2924.207    25.635988    268.53497 
  722000    259.46699     7913.575     2924.207    23.499315    259.46699 
  723000    255.26198    14258.925     2924.207    23.904379    255.26198 
  724000    263.68676   -46.382589     2924.207    26.321167    263.68676 
  725000     272.8083    6496.0552     2924.207    27.701442     272.8083 
  726000    259.74238    8752.1619     2924.207    26.490736    259.74238 
  727000     243.8738    8090.6154     2924.207    26.501167     243.8738 
  728000    259.47136      11936.2     2924.207    30.089797    259.47136 
  729000    250.60526    1896.8094     2924.207    32.735108    250.60526 
  730000    267.18086    13024.599     2924.207    32.837291    267.18086 
  731000    263.55774    9403.1826     2924.207    30.726588    263.55774 
  732000    259.72827    5619.9091     2924.207    27.492192    259.72827 
  733000    253.34614    12426.484     2924.207    25.107597    253.34614 
  734000    254.28372    8073.2939     2924.207    26.782061    254.28372 
  735000    252.18923    16877.447     2924.207    27.717504    252.18923 
  736000    257.74746    4869.0427     2924.207     27.43149    257.74746 
  737000     259.1024    5314.1237     2924.207    26.465222     259.1024 
  738000    270.55224    5388.8693     2924.207    26.756603    270.55224 
  739000    258.53402     3830.278     2924.207    28.062869    258.53402 
  740000    254.06779    7479.4191     2924.207      30.2315    254.06779 
  741000    251.02604      14716.8     2924.207    32.787368    251.02604 
  742000    264.07142    13098.363     2924.207    33.051543    264.07142 
  743000    250.01918   -1802.4144     2924.207    32.051396    250.01918 
  744000    243.40689    16541.963     2924.207    29.511955    243.40689 
  745000    264.01746    7498.3675     2924.207    25.488686    264.01746 
  746000    262.94219    9386.0379     2924.207    23.038356    262.94219 
  747000    267.05565    14540.901     2924.207    23.580832    267.05565 
  748000    250.54018    3745.5918     2924.207    24.131807    250.54018 
  749000    263.27899    11000.315     2924.207    26.907155    263.27899 
  750000    259.39639    1173.6555     2924.207    31.037665    259.39639 
  751000    257.46717    10557.796     2924.207    31.577748    257.46717 
  752000    251.44366    11730.073     2924.207    28.162088    251.44366 
  753000    245.47233    2892.2378     2924.207    25.322058    245.47233 
  754000    265.33873    9341.7512     2924.207     23.25508    265.33873 
  755000    247.91824    10334.728     2924.207    21.537821    247.91824 
  756000    245.92544    10365.013     2924.207    20.446104    245.92544 
  757000    259.65081    5185.5893     2924.207    22.354578    259.65081 
  758000    255.88695    13030.908     2924.207    22.586095    255.88695 
  759000    263.95137    4775.2432     2924.207    21.135294    263.95137 
  760000    258.71444    14497.176     2924.207    19.442056    258.71444 
  761000    271.98803    8036.0628     2924.207    19.028154    271.98803 
  762000    264.95851    10573.816     2924.207     22.01898    264.95851 
  763000    261.06516    5445.4752     2924.207    27.681546    261.06516 
  764000    267.25866    9353.1848     2924.207    32.284954    267.25866 
  765000    257.35676    11822.061     2924.207    32.242434    257.35676 
  766000    248.42063    8811.3941     2924.207     28.26091    248.42063 
  767000    263.14823    4475.2547     2924.207    27.075753    263.14823 
  768000    250.78617    4514.7071     2924.207    29.968006    250.78617 
  769000    253.75573    15806.302     2924.207    33.879831    253.75573 
  770000      267.681    7208.4216     2924.207    35.108256      267.681 
  771000    247.45929    10189.186     2924.207    33.437848    247.45929 
  772000    256.07704    9978.9328     2924.207    30.365817    256.07704 
  773000    245.85694    7821.3749     2924.207    29.990673    245.85694 
  774000    282.82682    4152.7288     2924.207    33.157678    282.82682 
  775000    246.52852    6434.3186     2924.207    35.901333    246.52852 
  776000      247.813    13914.496     2924.207    35.388608      247.813 
  777000    249.81784    8935.6577     2924.207    33.687255    249.81784 
  778000    260.05484    4474.6351     2924.207    32.453978    260.05484 
  779000    266.58574    9384.0709     2924.207    31.804844    266.58574 
  780000    269.51787    12049.864     2924.207    31.357244    269.51787 
  781000    272.38393    4198.2255     2924.207    30.507655    272.38393 
  782000    263.20988     11995.59     2924.207    28.039728    263.20988 
  783000    262.35422    9483.2757     2924.207    25.708225    262.35422 
  784000    264.79535    4176.0565     2924.207    23.713125    264.79535 
  785000     260.2958    14931.629     2924.207    20.976663     260.2958 
  786000    258.78061    7461.7561     2924.207    19.696377    258.78061 
  787000    255.81418     10765.47     2924.207     20.82631    255.81418 
  788000    255.82946    11506.192     2924.207    23.532753    255.82946 
  789000    263.24576    734.67404     2924.207    25.532699    263.24576 
  790000    245.42645    5278.4522     2924.207    28.860023    245.42645 
  791000     246.7778    21918.491     2924.207    31.909755     246.7778 
  792000    268.54931    848.76041     2924.207    33.370749    268.54931 
  793000    271.92979    5596.5415     2924.207    31.654255    271.92979 
  794000     271.3398    18851.289     2924.207    26.882056     271.3398 
  795000    247.69064    6472.1013     2924.207    24.631154    247.69064 
  796000    253.65196    5727.3709     2924.207    25.505113    253.65196 
  797000    260.35319    10807.011     2924.207    28.044986    260.35319 
  798000     266.6779    6801.3633     2924.207    29.415543     266.6779 
  799000    262.94172    7945.1129     2924.207    28.822916    262.94172 
  800000    254.05915    13868.512     2924.207    26.328646    254.05915 
  801000    253.57712    7901.8712     2924.207    24.507541    253.57712 
  802000     250.7394    10735.337     2924.207    25.328851     250.7394 
  803000    261.96256    10244.718     2924.207    23.278926    261.96256 
  804000    265.06539    8209.0704     2924.207    23.619545    265.06539 
  805000    280.17735    2122.4599     2924.207    28.842392    280.17735 
  806000    247.14002    7643.4553     2924.207    32.709181    247.14002 
  807000    263.70883    7113.9661     2924.207    34.476739    263.70883 
  808000    263.59691    8857.7321     2924.207    33.503686    263.59691 
  809000    237.94807    9592.6253     2924.207    32.291939    237.94807 
  810000    269.93069    11204.698     2924.207    30.665446    269.93069 
  811000     267.8356    7247.1155     2924.207    28.429077     267.8356 
  812000    266.13071    4756.7787     2924.207    27.113215    266.13071 
  813000    251.77868    11197.564     2924.207    28.499887    251.77868 
  814000    247.44296    14523.882     2924.207     29.45392    247.44296 
  815000    264.72581    3259.6247     2924.207    30.904783    264.72581 
  816000    271.39336    9953.0787     2924.207     32.98271    271.39336 
  817000    268.75056    9613.4639     2924.207    33.961866    268.75056 
  818000    245.85491    5067.3416     2924.207    34.014368    245.85491 
  819000    261.76423    13146.562     2924.207    33.921746    261.76423 
  820000    264.20214    6473.8777     2924.207    33.197719    264.20214 
  821000    264.77882    9471.7276     2924.207    30.788357    264.77882 
  822000    245.44012    9329.1842     2924.207    27.478934    245.44012 
  823000    245.44905    4167.9985     2924.207    25.552584    245.44905 
  824000    260.88337    9684.3829     2924.207     26.42213    260.88337 
  825000    251.24872    13419.334     2924.207    29.104488    251.24872 
  826000    266.95565    5031.0733     2924.207    31.342155    266.95565 
  827000    246.86956    10429.258     2924.207     30.89609    246.86956 
  828000    270.78887    1827.2967     2924.207    28.766268    270.78887 
  829000    250.64214    8959.1961     2924.207    28.267904    250.64214 
  830000    255.70953    7119.6088     2924.207    28.640024    255.70953 
  831000    249.96322    8483.0933     2924.207    30.381711    249.96322 
  832000    263.15738    7499.3237     2924.207    28.519709    263.15738 
  833000    254.15233    13645.556     2924.207    26.609215    254.15233 
  834000    252.47362    7098.5703     2924.207    25.184268    252.47362 
  835000    265.37476    5026.2868     2924.207    23.855781    265.37476 
  836000    248.16618    14020.528     2924.207    25.486126    248.16618 
  837000    266.18375    6724.4308     2924.207    26.783193    266.18375 
  838000    277.24203    3835.2003     2924.207    28.753405    277.24203 
  839000    253.03913     13253.41     2924.207    29.195746    253.03913 
  840000    256.09595    11182.502     2924.207    26.553398    256.09595 
  841000    270.69683    1654.5118     2924.207    21.719524    270.69683 
  842000    253.77192    12318.745     2924.207    17.429699    253.77192 
  843000    266.18402    4940.7472     2924.207    12.865761    266.18402 
  844000    245.59469    4297.6213     2924.207    10.782981    245.59469 
  845000    252.19403     14123.94     2924.207    11.656724    252.19403 
  846000     267.0106    8083.9537     2924.207     12.68543     267.0106 
  847000     242.1621    6900.5419     2924.207    12.973679     242.1621 
  848000    256.74871    13374.178     2924.207    14.846061    256.74871 
  849000     240.2438    4246.0134     2924.207    17.504627     240.2438 
  850000    256.63676    4831.4863     2924.207    18.117581    256.63676 
  851000    262.22523    12726.002     2924.207    21.452573    262.22523 
  852000    252.75154    12550.352     2924.207    25.434953    252.75154 
  853000    254.63477    4732.3357     2924.207    26.810347    254.63477 
  854000    250.08364    15370.353     2924.207    23.689268    250.08364 
  855000    280.59398     11304.75     2924.207    20.240009    280.59398 
  856000    244.38966    155.28408     2924.207    19.205335    244.38966 
  857000    253.70628    14203.155     2924.207      21.0408    253.70628 
  858000    267.78584    4217.2026     2924.207    23.286848    267.78584 
  859000    268.53208    2269.3276     2924.207    25.786331    268.53208 
  860000     266.0646    20190.402     2924.207    28.107546     266.0646 
  861000     264.9883    9173.9117     2924.207     29.67409     264.9883 
  862000    266.76291   -1979.2907     2924.207    28.537957    266.76291 
  863000    250.15249      15164.6     2924.207    27.986672    250.15249 
  864000    260.38261    6968.9746     2924.207    29.069037    260.38261 
  865000    247.02049    8085.9827     2924.207    28.515433    247.02049 
  866000    259.56431    14509.475     2924.207    26.905715    259.56431 
  867000    246.06646    11365.023     2924.207    25.821488    246.06646 
  868000    266.73794    4809.0683     2924.207    26.715036    266.73794 
  869000    262.71714    8474.9185     2924.207    26.164239    262.71714 
  870000    257.02808     13161.56     2924.207     28.40473    257.02808 
  871000     257.3633    8147.8564     2924.207    32.027661     257.3633 
  872000    254.51878    7891.7647     2924.207    34.122006    254.51878 
  873000    256.80087    9468.7668     2924.207    34.152433    256.80087 
  874000    238.40364    8087.8128     2924.207    32.717149    238.40364 
  875000    256.59593    5508.3479     2924.207    31.664408    256.59593 
  876000    268.48434    8761.9487     2924.207    31.562478    268.48434 
  877000    263.43644    7979.9976     2924.207     33.52726    263.43644 
  878000    244.45552    2768.1416     2924.207    35.168385    244.45552 
  879000    260.54946    13814.467     2924.207    34.843769    260.54946 
  880000    265.46436    9930.9186     2924.207    32.542282    265.46436 
  881000    270.64458     2784.287     2924.207    30.120884    270.64458 
  882000    251.15658    19587.428     2924.207    27.285527    251.15658 
  883000    266.31578    10468.829     2924.207    25.598153    266.31578 
  884000    261.66256    2575.8603     2924.207    27.727932    261.66256 
  885000    270.13226    12758.809     2924.207    28.814279    270.13226 
  886000    250.59257    7241.4443     2924.207    28.198215    250.59257 
  887000    264.71684    6172.4488     2924.207    25.525498    264.71684 
  888000    259.27698    13997.061     2924.207    24.113131    259.27698 
  889000     232.6452    5143.4369     2924.207     24.11611     232.6452 
  890000    251.30674    9824.1215     2924.207    27.566065    251.30674 
  891000    259.65918    11139.012     2924.207    31.474475    259.65918 
  892000    250.11788    3957.8793     2924.207    33.532187    250.11788 
  893000    247.81694    11102.372     2924.207    33.452549    247.81694 
  894000    254.54325    10145.752     2924.207    33.743635    254.54325 
  895000    265.27297    4742.7521     2924.207     32.21677    265.27297 
  896000    252.80555    7432.3284     2924.207    29.638271    252.80555 
  897000    250.51463    9766.4115     2924.207    26.421466    250.51463 
  898000    252.70476    12075.443     2924.207    22.487523    252.70476 
  899000    260.47693    5272.1895     2924.207    22.526253    260.47693 
  900000    265.12799    5033.0821     2924.207    24.904923    265.12799 
  901000    266.38938    8739.1604     2924.207      25.6002    266.38938 
  902000    245.82824    13623.036     2924.207    26.188213    245.82824 
  903000    254.37724    8887.5328     2924.207    27.531482    254.37724 
  904000     263.7866   -364.00047     2924.207    27.415544     263.7866 
  905000     253.3071    10335.483     2924.207    29.392869     253.3071 
  906000    261.45471    14178.781     2924.207    29.850493    261.45471 
  907000    217.98648    6043.2505     2924.207    29.844565    217.98648 
  908000    244.86753    16866.784     2924.207    28.444171    244.86753 
  909000    252.94653    7604.5604     2924.207    27.681863    252.94653 
  910000    263.18719   -717.27783     2924.207    28.785906    263.18719 
  911000      255.555    13822.282     2924.207    31.424975      255.555 
  912000    251.64715    9080.1254     2924.207    32.608462    251.64715 
  913000    250.20033     213.6246     2924.207    31.804235    250.20033 
  914000    253.38052    9807.9588     2924.207    29.656751    253.38052 
  915000    261.20402    12418.251     2924.207    26.008768    261.20402 
  916000    259.78178    5391.4956     2924.207    24.915615    259.78178 
  917000    263.88413    5818.3072     2924.207    25.452394    263.88413 
  918000    261.00769    12318.907     2924.207    24.958116    261.00769 
  919000    272.31255    6454.8926     2924.207    23.912184    272.31255 
  920000    244.13649     10060.81     2924.207    23.417168    244.13649 
  921000    250.76783    9819.4132     2924.207    21.736545    250.76783 
  922000    251.52002    10061.206     2924.207    18.237298    251.52002 
  923000    261.62881    8626.0926     2924.207    18.000705    261.62881 
  924000    260.32081   -226.83799     2924.207    20.987767    260.32081 
  925000    271.53646    8697.3057     2924.207     24.87997    271.53646 
  926000     252.0969    12269.304     2924.207    27.058923     252.0969 
  927000    266.04078    2649.2191     2924.207     28.72941    266.04078 
  928000    260.51004    11382.702     2924.207    28.043174    260.51004 
  929000    252.35507     3610.721     2924.207    27.654956    252.35507 
  930000    249.03544    13346.536     2924.207       27.632    249.03544 
  931000    253.99552   -2349.5478     2924.207    25.570803    253.99552 
  932000    259.15176    7983.1431     2924.207    23.934396    259.15176 
  933000    255.54577    19309.958     2924.207    22.675573    255.54577 
  934000    255.83824   -1043.7547     2924.207      22.4642    255.83824 
  935000    255.98854    6721.9946     2924.207    25.667732    255.98854 
  936000    256.16187    10835.439     2924.207    30.293804    256.16187 
  937000    246.75547     8506.564     2924.207    32.143969    246.75547 
  938000    256.56077    8073.5105     2924.207    29.541254    256.56077 
  939000    256.11855    9811.9314     2924.207    24.007993    256.11855 
  940000    244.19804    7612.8067     2924.207    21.931776    244.19804 
  941000    243.44089    1547.2845     2924.207    21.644605    243.44089 
  942000    251.29893    17512.022     2924.207    22.518453    251.29893 
  943000    251.79762    8649.0003     2924.207    22.944041    251.79762 
  944000    243.24668    11648.657     2924.207    23.893512    243.24668 
  945000     240.0253    3835.8299     2924.207    25.886686     240.0253 
  946000    241.87543     8818.493     2924.207    26.683634    241.87543 
  947000    248.97038    13120.374     2924.207    26.216457    248.97038 
  948000     260.4628    7414.0473     2924.207    27.150108     260.4628 
  949000    242.49528     7798.078     2924.207    27.620388    242.49528 
  950000    248.36578    10831.548     2924.207    26.101774    248.36578 
  951000    253.06666    10642.592     2924.207    26.751977    253.06666 
  952000    265.60442    3751.1099     2924.207    25.539978    265.60442 
  953000    251.25327     5849.848     2924.207    26.210176    251.25327 
  954000     258.5107    10455.157     2924.207      27.7546     258.5107 
  955000    262.32891    11667.035     2924.207    25.857899    262.32891 
  956000    265.67507    3082.3805     2924.207    24.757785    265.67507 
  957000    255.20398    4766.5745     2924.207    25.887716    255.20398 
  958000    255.31432     9705.664     2924.207    27.153832    255.31432 
  959000    263.25917     3281.685     2924.207    27.640904    263.25917 
  960000     241.6918    5132.6327     2924.207    27.383327     241.6918 
  961000    253.23847    11939.215     2924.207    26.980846    253.23847 
  962000    267.88401    6330.2569     2924.207    26.430518    267.88401 
  963000    260.84293    9861.6067     2924.207    25.485561    260.84293 
  964000    286.01385    4033.9795     2924.207    25.487074    286.01385 
  965000    246.26483    11984.113     2924.207    26.149083    246.26483 
  966000    265.30049    10244.437     2924.207    27.448798    265.30049 
  967000    278.70269    12705.746     2924.207    28.718137    278.70269 
  968000    259.75828    6275.5721     2924.207    27.523332    259.75828 
  969000    268.13506   -492.82398     2924.207    25.971846    268.13506 
  970000    256.47296    6506.4146     2924.207    25.970071    256.47296 
  971000    255.65683    12392.459     2924.207    26.353669    255.65683 
  972000    252.74662    6785.6344     2924.207     28.33732    252.74662 
  973000    264.11335    6216.6548     2924.207    29.690841    264.11335 
  974000    251.65596    7581.5533     2924.207     29.22229    251.65596 
  975000    252.46346    15105.493     2924.207    28.187039    252.46346 
  976000    236.92463    6042.1141     2924.207    26.596764    236.92463 
  977000    262.02662    8728.9745     2924.207    25.625788    262.02662 
  978000    259.39199     5931.835     2924.207    23.051776    259.39199 
  979000    249.12563    9255.0911     2924.207    20.776879    249.12563 
  980000    255.29979    2942.4518     2924.207    19.110555    255.29979 
  981000    257.35487    9452.4579     2924.207    19.568515    257.35487 
  982000    266.90951    12611.602     2924.207    21.261585    266.90951 
  983000    248.32918    784.72979     2924.207    23.635555    248.32918 
  984000    268.74353     6146.783     2924.207    27.883502    268.74353 
  985000    272.03445    8184.6143     2924.207    30.717891    272.03445 
  986000    262.55838    6680.3944     2924.207    30.407015    262.55838 
  987000    244.61224    2630.2355     2924.207    27.767591    244.61224 
  988000    262.04727    11168.235     2924.207    28.001664    262.04727 
  989000    253.04247    1173.2793     2924.207    30.841514    253.04247 
  990000    263.59493     5884.741     2924.207     33.88636    263.59493 
  991000    252.12729    6835.6073     2924.207    35.360201    252.12729 
  992000    259.23884    9761.2476     2924.207    35.786542    259.23884 
  993000    267.60099    4689.4851     2924.207    36.158887    267.60099 
  994000    257.07656    7767.5684     2924.207    36.018268    257.07656 
  995000    268.59397    4055.4767     2924.207    35.866204    268.59397 
  996000    254.80672    14357.174     2924.207    35.051964    254.80672 
  997000    250.89248    7573.2114     2924.207    34.376809    250.89248 
  998000    260.98104    12414.299     2924.207    34.199724    260.98104 
  999000    255.13332    308.41665     2924.207    32.319766    255.13332 
 1000000    242.98372    4113.1991     2924.207     30.92976    242.98372 
 1001000     262.3478    11619.472     2924.207    31.466166     262.3478 
 1002000    250.23832    10827.125     2924.207    32.825203    250.23832 
 1003000     270.7758    8377.0122     2924.207    34.600238     270.7758 
 1004000    245.71897    2780.9781     2924.207    35.261901    245.71897 
 1005000    238.70648    5815.6117     2924.207    34.507422    238.70648 
 1006000    261.40241    8708.6777     2924.207    34.570462    261.40241 
 1007000    245.55014    8286.6493     2924.207     33.47358    245.55014 
 1008000     247.6877    11640.577     2924.207    31.816522     247.6877 
 1009000    254.73737   -474.97327     2924.207    30.552812    254.73737 
 1010000    255.94549    5184.0285     2924.207    31.749633    255.94549 
 1011000    266.14174    11201.634     2924.207    33.352512    266.14174 
 1012000    255.66863     6558.659     2924.207    33.486519    255.66863 
 1013000    252.04736     3173.376     2924.207    33.153122    252.04736 
 1014000    259.63812     6178.861     2924.207    33.567537    259.63812 
 1015000    257.68975    9771.3327     2924.207    31.727652    257.68975 
 1016000    255.04211    686.12603     2924.207    29.588422    255.04211 
 1017000    250.26569    12199.886     2924.207     28.69364    250.26569 
 1018000      257.655    1556.1694     2924.207    30.128496      257.655 
 1019000    264.17581    1757.2252     2924.207    29.487391    264.17581 
 1020000    256.31271    14770.607     2924.207     27.58748    256.31271 
 1021000    260.39701    3705.4675     2924.207    27.101793    260.39701 
 1022000    257.01714    5835.8439     2924.207    27.496612    257.01714 
 1023000    258.96073    12372.903     2924.207    30.264794    258.96073 
 1024000    231.06099    10661.116     2924.207    31.938151    231.06099 
 1025000    251.88185    2727.1183     2924.207    31.238986    251.88185 
 1026000    265.97518    7281.4312     2924.207    30.869124    265.97518 
 1027000    271.68082    13265.783     2924.207    30.563875    271.68082 
 1028000    271.67791    6104.9242     2924.207    31.293575    271.67791 
 1029000    246.93243    289.74955     2924.207    31.980558    246.93243 
 1030000    256.32633    18204.811     2924.207    31.536411    256.32633 
 1031000    265.03307    6403.1166     2924.207    30.377215    265.03307 
 1032000    247.88484    6053.8077     2924.207    28.117581    247.88484 
 1033000    253.53428    9684.5535     2924.207    25.670589    253.53428 
 1034000    264.68693     5015.249     2924.207    26.717989    264.68693 
 1035000    253.05892     10354.02     2924.207    27.610939    253.05892 
 1036000    244.17559    8324.9948     2924.207    28.855486    244.17559 
 1037000    249.78642    4200.0271     2924.207    32.342637    249.78642 
 1038000    259.15867    10303.105     2924.207    34.649915    259.15867 
 1039000    246.77614    8191.1349     2924.207    33.816782    246.77614 
 1040000    255.56323    10975.966     2924.207    32.368062    255.56323 
 1041000    247.33581    10762.823     2924.207    30.129597    247.33581 
 1042000    261.90197    7954.2148     2924.207     26.78002    261.90197 
 1043000    266.15203    4816.0705     2924.207    22.418818    266.15203 
 1044000    258.11719    8408.1107     2924.207    19.750654    258.11719 
 1045000    261.59448    7305.5874     2924.207    18.492569    261.59448 
 1046000    252.89636    8695.1268     2924.207    20.247126    252.89636 
 1047000    272.67665    6590.5411     2924.207    23.559069    272.67665 
 1048000    250.65413    5648.4277     2924.207    24.381394    250.65413 
 1049000      272.461    5681.1188     2924.207    21.959234      272.461 
 1050000    248.79993    10988.353     2924.207    21.308812    248.79993 
 1051000    259.17816    4260.9045     2924.207    22.686761    259.17816 
 1052000    254.69761    7346.7964     2924.207    23.768494    254.69761 
 1053000    255.75395     327.5189     2924.207    25.039045    255.75395 
 1054000    258.21191    8148.2121     2924.207    24.609251    258.21191 
 1055000    239.96635    12142.098     2924.207    24.918744    239.96635 
 1056000    257.21073    2343.6968     2924.207    25.511637    257.21073 
 1057000    264.09764    7579.8949     2924.207    25.276535    264.09764 
 1058000    270.43799    12239.455     2924.207    24.691669    270.43799 
 1059000    263.76157    4953.8369     2924.207    26.025473    263.76157 
 1060000    253.16387    3986.0197     2924.207    28.682823    253.16387 
 1061000    268.19951    7973.0261     2924.207    31.626405    268.19951 
 1062000    277.66021     4376.678     2924.207    32.855567    277.66021 
 1063000    241.52333    11542.056     2924.207    31.154316    241.52333 
 1064000    261.81643    6711.5516     2924.207    29.581239    261.81643 
 1065000    242.61137     10925.76     2924.207    30.098844    242.61137 
 1066000    254.46258    8316.2066     2924.207    32.244307    254.46258 
 1067000    261.03772    12336.808     2924.207    33.135225    261.03772 
 1068000    256.27943    11078.989     2924.207    33.242596    256.27943 
 1069000    253.79602    3470.2404     2924.207    31.809328    253.79602 
 1070000    252.52359    2759.6188     2924.207    29.418237    252.52359 
 1071000    265.43481    11485.316     2924.207    28.801494    265.43481 
 1072000    263.59763    2794.6419     2924.207    27.301257    263.59763 
 1073000    259.74041    5784.6248     2924.207    26.426681    259.74041 
 1074000    252.84255    12545.439     2924.207    27.338713    252.84255 
 1075000    254.23921    3861.1281     2924.207    24.851644    254.23921 
 1076000    257.68449    12716.265     2924.207    22.751011    257.68449 
 1077000    262.75226    2620.2855     2924.207     21.74412    262.75226 
 1078000    246.32008    10491.801     2924.207    21.065167    246.32008 
 1079000    253.74025    4525.2279     2924.207    21.855585    253.74025 
 1080000    249.29996    8086.5689     2924.207    23.503608    249.29996 
 1081000    258.73003    9234.6373     2924.207    22.616494    258.73003 
 1082000    248.62977    12915.544     2924.207    21.867528    248.62977 
 1083000     259.8006    11342.876     2924.207    23.689017     259.8006 
 1084000    248.31607    640.37994     2924.207    27.990971    248.31607 
 1085000    239.89763    5643.2999     2924.207    31.151639    239.89763 
 1086000     268.7299    10279.547     2924.207     31.08483     268.7299 
 1087000    257.38003    2642.2823     2924.207    31.105443    257.38003 
 1088000    248.71979    6918.8954     2924.207    30.629764    248.71979 
 1089000    256.43154    7310.7722     2924.207    28.994752    256.43154 
 1090000    253.17256    5666.6394     2924.207    27.915031    253.17256 
 1091000    253.55544     7833.038     2924.207    28.685292    253.55544 
 1092000    248.58533    1902.2585     2924.207      30.0184    248.58533 
 1093000    255.66965    11224.508     2924.207    30.666501    255.66965 
 1094000    245.88824    11398.296     2924.207    30.035258    245.88824 
 1095000    266.57238    4456.2659     2924.207    29.586061    266.57238 
 1096000    239.12309    6696.8668     2924.207     27.10956    239.12309 
 1097000    252.77666    7298.2703     2924.207    22.833329    252.77666 
 1098000    252.67064    8198.9851     2924.207    19.138918    252.67064 
 1099000    252.93506    10257.984     2924.207    19.699323    252.93506 
 1100000    259.79515    5306.2098     2924.207    21.057953    259.79515 
 1101000    235.03455    6136.7743     2924.207     25.21868    235.03455 
 1102000    255.91557    7535.3001     2924.207    29.696583    255.91557 
 1103000    236.46317    9433.0631     2924.207    33.384981    236.46317 
 1104000    269.54699    8118.3306     2924.207     34.76653    269.54699 
 1105000    247.38183    8137.2042     2924.207    34.883614    247.38183 
 1106000    249.78285    1910.2273     2924.207    33.490772    249.78285 
 1107000    265.93393    7397.5911     2924.207    33.129206    265.93393 
 1108000    260.25971    10857.063     2924.207    32.494433    260.25971 
 1109000     246.4533    4068.3804     2924.207    31.421719     246.4533 
 1110000     248.8078    4990.8758     2924.207     31.41999     248.8078 
 1111000    258.63159    11107.312     2924.207    31.571599    258.63159 
 1112000    253.33596    2543.1873     2924.207    30.727351    253.33596 
 1113000    263.42833    7835.8463     2924.207    28.895498    263.42833 
 1114000    257.32604    15073.694     2924.207    28.201207    257.32604 
 1115000    260.99987   -2759.3612     2924.207    29.720198    260.99987 
 1116000    236.93608    8146.8992     2924.207    31.222266    236.93608 
 1117000    245.81335    13530.646     2924.207     30.71806    245.81335 
 1118000    249.24379    7652.8453     2924.207    29.033841    249.24379 
 1119000    256.10491   -3644.4041     2924.207    27.250357    256.10491 
 1120000    262.82357    14850.068     2924.207    25.570562    262.82357 
 1121000    275.58602    11356.163     2924.207    23.255259    275.58602 
 1122000    254.42274   -500.23205     2924.207    23.208878    254.42274 
 1123000    254.40165    7314.0288     2924.207    23.580701    254.40165 
 1124000    232.06133     6372.881     2924.207    23.331715    232.06133 
 1125000    242.32713    8181.1761     2924.207    25.283805    242.32713 
 1126000    253.93172    9877.2405     2924.207    26.906877    253.93172 
 1127000    262.63918    4969.2273     2924.207    26.245376    262.63918 
 1128000    241.57611    10060.277     2924.207    25.974437    241.57611 
 1129000    263.46377    4405.9618     2924.207    28.479126    263.46377 
 1130000    251.48968    6599.3974     2924.207    30.385613    251.48968 
 1131000    261.31078    7988.5164     2924.207    28.664969    261.31078 
 1132000    238.20869    6406.4748     2924.207    27.001666    238.20869 
 1133000    258.73497    7078.5074     2924.207    26.345854    258.73497 
 1134000    259.46261    10351.912     2924.207    25.262812    259.46261 
 1135000    254.85726    2924.2318     2924.207    24.737192    254.85726 
 1136000    260.79217    11699.381     2924.207    23.545396    260.79217 
 1137000    262.48691    12934.714     2924.207    22.612999    262.48691 
 1138000    236.88675    2436.2761     2924.207    24.642647    236.88675 
 1139000    248.42366    6731.0736     2924.207    28.020608    248.42366 
 1140000     262.0881    10643.627     2924.207    29.167855     262.0881 
 1141000    255.92351    11365.581     2924.207    28.742109    255.92351 
 1142000    250.56248    71.556608     2924.207    27.251307    250.56248 
 1143000     240.9108    7814.4015     2924.207    25.904542     240.9108 
 1144000    258.15264    9368.0897     2924.207    25.437573    258.15264 
 1145000    262.04661    8545.5733     2924.207    24.692156    262.04661 
 1146000    254.73821    7414.0927     2924.207    22.935604    254.73821 
 1147000    263.02181    7548.3314     2924.207    19.030123    263.02181 
 1148000     268.4546    11516.395     2924.207    15.482191     268.4546 
 1149000    259.09951    6565.5003     2924.207    13.072422    259.09951 
 1150000    246.85997   -4253.9288     2924.207    13.714081    246.85997 
 1151000    267.30802    13839.323     2924.207    14.916799    267.30802 
 1152000    260.57268    4506.3334     2924.207    15.148592    260.57268 
 1153000    241.67216   -1432.2058     2924.207    14.871155    241.67216 
 1154000    243.77821    10401.179     2924.207    15.389914    243.77821 
 1155000    253.42511    11043.971     2924.207    16.022873    253.42511 
 1156000     229.6184   -3201.8065     2924.207    18.539995     229.6184 
 1157000     268.1898    7919.5926     2924.207    21.676061     268.1898 
 1158000    236.78198    11673.906     2924.207    23.479209    236.78198 
 1159000    245.16341    8429.2802     2924.207    23.539162    245.16341 
 1160000    248.40516   -406.15749     2924.207    22.492626    248.40516 
 1161000    259.65254    11958.652     2924.207    21.628294    259.65254 
 1162000    265.65231    9291.8874     2924.207    21.972832    265.65231 
 1163000    258.73461    4299.5241     2924.207    22.791204    258.73461 
 1164000    247.26803   -1235.5974     2924.207    24.358671    247.26803 
 1165000    252.99669    11009.406     2924.207    24.689864    252.99669 
 1166000    271.23911    10629.606     2924.207    26.143262    271.23911 
 1167000    249.78868    6602.5217     2924.207    27.648077    249.78868 
 1168000    242.58433    8635.8077     2924.207    26.469926    242.58433 
 1169000    257.87255    2856.6612     2924.207    25.718375    257.87255 
 1170000    262.28615    6111.8532     2924.207    24.921092    262.28615 
 1171000    275.79344    7639.3257     2924.207    24.920982    275.79344 
 1172000    267.77166    9967.1397     2924.207    25.585902    267.77166 
 1173000    256.88428    4407.3028     2924.207    27.392925    256.88428 
 1174000    253.42071    1881.3416     2924.207    29.208481    253.42071 
 1175000    248.78481    10923.159     2924.207     30.35706    248.78481 
 1176000    255.28175    12273.583     2924.207    32.451864    255.28175 
 1177000    246.64299    2690.8216     2924.207    31.739336    246.64299 
 1178000    255.50272    301.28706     2924.207    29.532264    255.50272 
 1179000     278.9107    16553.115     2924.207    28.491407     278.9107 
 1180000    263.74803    5510.5145     2924.207    29.776554    263.74803 
 1181000    258.76354   -757.36809     2924.207    29.896176    258.76354 
 1182000    248.17961    8846.8319     2924.207     28.88981    248.17961 
 1183000    244.71908     9267.621     2924.207    29.345325    244.71908 
 1184000    255.28481   -348.16448     2924.207    30.863735    255.28481 
 1185000    246.84333     13587.67     2924.207    31.568284    246.84333 
 1186000    260.56216    8840.9195     2924.207    32.070761    260.56216 
 1187000    254.57734    1909.4024     2924.207     31.48824    254.57734 
 1188000    238.71328    7946.0006     2924.207    29.689996    238.71328 
 1189000    249.70478    10581.572     2924.207    27.779473    249.70478 
 1190000    259.82391    6000.7566     2924.207    26.458001    259.82391 
 1191000    265.85202    2531.9752     2924.207    26.048607    265.85202 
 1192000    269.44117    10160.308     2924.207    27.208086    269.44117 
 1193000    255.42257    5708.6772     2924.207    28.666688    255.42257 
 1194000    260.71343    9251.2256     2924.207    29.453866    260.71343 
 1195000    238.83794    5283.2408     2924.207    30.841451    238.83794 
 1196000    253.77802    7732.4193     2924.207    32.252075    253.77802 
 1197000    258.30168    6834.7831     2924.207    33.389619    258.30168 
 1198000    255.18397    6133.2086     2924.207    34.055736    255.18397 
 1199000    246.18672    6419.1879     2924.207    34.186465    246.18672 
 1200000    233.86419    11134.118     2924.207    34.584733    233.86419 
 1201000    260.51184     4645.223     2924.207    33.971961    260.51184 
 1202000    251.07213    7161.9233     2924.207    32.190754    251.07213 
 1203000    264.87796    6435.4876     2924.207    32.509278    264.87796 
 1204000    253.46573    7558.9157     2924.207    33.764022    253.46573 
 1205000    238.26251    9064.3146     2924.207    34.342151    238.26251 
 1206000    261.33987    594.90536     2924.207    33.518382    261.33987 
 1207000    259.57166    10569.012     2924.207    31.020222    259.57166 
 1208000     253.5862    6547.8561     2924.207    28.792562     253.5862 
 1209000    247.36261     6471.892     2924.207     28.37031    247.36261 
 1210000     235.3204    7797.5573     2924.207    26.988882     235.3204 
 1211000    249.24869    9109.8199     2924.207    25.795369    249.24869 
 1212000    246.86006    8865.2131     2924.207    24.828426    246.86006 
 1213000    253.41591    5028.9264     2924.207    24.027769    253.41591 
 1214000    269.61979    6197.6541     2924.207    22.597377    269.61979 
 1215000    266.22802    10792.833     2924.207    21.757992    266.22802 
 1216000    252.02494   -143.93908     2924.207    21.454716    252.02494 
 1217000    259.03884    5949.2568     2924.207    21.775452    259.03884 
 1218000    257.00357    19796.848     2924.207    21.595159    257.00357 
 1219000    251.33717    1065.6247     2924.207    20.195632    251.33717 
 1220000    258.86088    3438.5201     2924.207    17.599851    258.86088 
 1221000     266.2272    10898.085     2924.207    16.765997     266.2272 
 1222000    264.58854    7519.1702     2924.207    18.135067    264.58854 
 1223000    262.14781    6510.4155     2924.207    20.353105    262.14781 
 1224000    258.42359    9953.0099     2924.207    21.769188    258.42359 
 1225000     257.0528   -1615.6407     2924.207    22.959461     257.0528 
 1226000    257.55545    2745.0886     2924.207     23.58379    257.55545 
 1227000    268.00545    14381.508     2924.207    23.078583    268.00545 
 1228000    252.38359    5770.6197     2924.207    22.044858    252.38359 
 1229000    245.44437    7704.7376     2924.207    22.072465    245.44437 
 1230000    252.73938    5983.2011     2924.207    23.307202    252.73938 
 1231000    268.98329    3750.2584     2924.207    24.539345    268.98329 
 1232000    253.79323    8082.6928     2924.207     24.21904    253.79323 
 1233000    248.95525    7308.4454     2924.207    25.948545    248.95525 
 1234000    263.28416    4109.7664     2924.207    27.836824    263.28416 
 1235000     256.3853    10925.988     2924.207    27.610117     256.3853 
 1236000    248.00561   -320.89506     2924.207    27.814084    248.00561 
 1237000    237.34062     3319.051     2924.207    28.782613    237.34062 
 1238000    264.53105    10337.415     2924.207    27.737938    264.53105 
 1239000    261.42755    11796.589     2924.207    28.038574    261.42755 
 1240000     231.0205    576.08631     2924.207    28.644335     231.0205 
 1241000    237.80949    10223.292     2924.207     27.61013    237.80949 
 1242000    250.32667    11593.342     2924.207    28.496434    250.32667 
 1243000     252.8942    1343.9034     2924.207     29.26102     252.8942 
 1244000    250.29185    6868.5223     2924.207    29.973121    250.29185 
 1245000    278.56416    13197.044     2924.207    30.485522    278.56416 
 1246000    238.70215    4423.8757     2924.207    30.343608    238.70215 
 1247000    248.38642    3168.0877     2924.207    29.011988    248.38642 
 1248000    265.62168      10259.7     2924.207    26.365865    265.62168 
 1249000    252.99092    7851.9759     2924.207     25.19779    252.99092 
 1250000    253.02524   -266.95078     2924.207     25.03381    253.02524 
 1251000     253.1636    9236.3013     2924.207    23.368556     253.1636 
 1252000    256.96472    9517.8959     2924.207     22.80946    256.96472 
 1253000    238.54429    8333.8336     2924.207    23.915031    238.54429 
[...]
 1451000    250.38247    9628.1039     2924.207    27.533529    250.38247 
 1452000    262.96895    7237.1093     2924.207    29.282107    262.96895 
 1453000    243.39329    1879.8138     2924.207    29.374512    243.39329 
 1454000    252.38967    10376.787     2924.207     29.13301    252.38967 
 1455000    243.81673    10653.008     2924.207    28.893662    243.81673 
 1456000    257.81013    185.89873     2924.207    27.104416    257.81013 
 1457000    267.13043    2965.4154     2924.207    25.915089    267.13043 
 1458000    264.52542    10411.268     2924.207    26.931526    264.52542 
 1459000     255.1749    12104.523     2924.207    26.291402     255.1749 
 1460000    250.67651    1103.1611     2924.207    26.716321    250.67651 
 1461000     251.9019    2961.1931     2924.207    26.905067     251.9019 
 1462000    253.28192    12511.043     2924.207     24.46355    253.28192 
 1463000    236.48685     8757.779     2924.207    24.799793    236.48685 
 1464000    246.70003     754.2795     2924.207     23.43653    246.70003 
 1465000    251.01734    -384.1525     2924.207    23.980908    251.01734 
 1466000    266.31545     9023.631     2924.207    25.396548    266.31545 
 1467000    261.27355    15168.029     2924.207     26.43022    261.27355 
 1468000    257.56318   -4597.1694     2924.207    27.614059    257.56318 
 1469000    245.25647   -3471.8028     2924.207    27.716486    245.25647 
 1470000    252.36954    12831.644     2924.207    26.659019    252.36954 
 1471000    266.06184    9996.7468     2924.207    28.177124    266.06184 
 1472000    250.40803    2384.1123     2924.207    28.829414    250.40803 
 1473000    255.88263    7124.6307     2924.207    28.364766    255.88263 
 1474000    275.22457    11071.242     2924.207    27.460309    275.22457 
 1475000    251.40688    6633.2035     2924.207    26.720637    251.40688 
 1476000    253.33978    3887.8267     2924.207    25.871358    253.33978 
 1477000    271.19157    5345.5749     2924.207     24.46383    271.19157 
 1478000    267.32853    7023.4666     2924.207    25.212494    267.32853 
 1479000    253.74805    8469.4963     2924.207    25.429326    253.74805 
 1480000    237.90893    5681.2135     2924.207    26.169665    237.90893 
 1481000    259.03153    4093.2604     2924.207    27.558313    259.03153 
 1482000    265.15724    5145.4908     2924.207    25.782412    265.15724 
 1483000    256.43242    12703.571     2924.207    26.294822    256.43242 
 1484000    255.33626   -1110.1161     2924.207     26.92399    255.33626 
 1485000    264.01537    5742.9291     2924.207    29.708336    264.01537 
 1486000    243.60338    14303.398     2924.207    29.497943    243.60338 
 1487000    255.11513    2824.5912     2924.207    29.641455    255.11513 
 1488000    249.23388    3000.7226     2924.207    27.612824    249.23388 
 1489000    259.98991    6931.1426     2924.207    26.527564    259.98991 
 1490000    264.21063    8392.4709     2924.207    29.270059    264.21063 
 1491000      272.351      3364.28     2924.207    29.025133      272.351 
 1492000    276.46749    3867.3524     2924.207    26.450187    276.46749 
 1493000    264.12923    10954.263     2924.207    25.627564    264.12923 
 1494000    260.56764    2733.8126     2924.207    28.181855    260.56764 
 1495000    256.70096   -658.51378     2924.207    29.486472    256.70096 
 1496000    270.51756    9864.7339     2924.207    27.903813    270.51756 
 1497000    244.17546    14973.051     2924.207    27.422568    244.17546 
 1498000     266.4909    4592.4989     2924.207    27.041853     266.4909 
 1499000    258.31878   -615.80757     2924.207    26.226077    258.31878 
 1500000    266.67816    8191.5124     2924.207     25.76697    266.67816 
 1501000    256.95812    11946.126     2924.207    27.631166    256.95812 
 1502000    263.78404    3738.4127     2924.207    27.658775    263.78404 
 1503000    256.70141    1524.6539     2924.207     26.26931    256.70141 
 1504000    272.56542    8395.7738     2924.207    25.590789    272.56542 
 1505000    263.36562    13310.766     2924.207    26.291034    263.36562 
 1506000    250.97925    2373.1752     2924.207    27.751977    250.97925 
 1507000    260.51106     1849.357     2924.207    27.975415    260.51106 
 1508000    256.12522    8160.6338     2924.207    26.515799    256.12522 
 1509000    260.49657    1745.3939     2924.207     25.13009    260.49657 
 1510000     268.0462    8624.1617     2924.207     26.64115     268.0462 
 1511000    262.25515    6802.2534     2924.207     27.86162    262.25515 
 1512000    256.50689    1481.6534     2924.207    27.721527    256.50689 
 1513000    254.89905    6357.5733     2924.207    28.485967    254.89905 
 1514000    247.40028     5048.585     2924.207     28.87913    247.40028 
 1515000    243.27446    8372.6935     2924.207    27.297589    243.27446 
 1516000    247.42996    2815.8977     2924.207    26.969824    247.42996 
 1517000    261.11283    6596.5324     2924.207       27.555    261.11283 
 1518000    252.78052    7032.8611     2924.207    27.761762    252.78052 
 1519000    253.38067    6466.0122     2924.207     26.89192    253.38067 
 1520000    232.68558    8735.3444     2924.207    25.050163    232.68558 
 1521000    245.39447    8872.8896     2924.207    25.668421    245.39447 
 1522000    273.66961    1527.8843     2924.207    26.666583    273.66961 
 1523000    267.66253    5020.2025     2924.207    25.510108    267.66253 
 1524000    246.22762    7032.9974     2924.207    27.120424    246.22762 
 1525000    237.37866    8577.4402     2924.207    29.563178    237.37866 
 1526000    250.94566    6757.6811     2924.207    30.082305    250.94566 
 1527000    235.35606    4773.9496     2924.207    29.969037    235.35606 
 1528000    248.90885    6471.4476     2924.207    29.772381    248.90885 
 1529000    247.72716     8461.248     2924.207     28.50643    247.72716 
 1530000    243.87249    7349.4189     2924.207    28.606307    243.87249 
 1531000    254.69209    3602.5245     2924.207     28.49477    254.69209 
 1532000    239.22921    6063.1185     2924.207    27.616683    239.22921 
 1533000     254.2197    10966.239     2924.207     26.53105     254.2197 
 1534000    259.95256    8958.1739     2924.207    25.626776    259.95256 
 1535000    265.66083    1939.6495     2924.207    27.960946    265.66083 
 1536000    245.94273    10725.169     2924.207    29.196751    245.94273 
 1537000    258.42425    5124.1354     2924.207    31.221622    258.42425 
 1538000    262.78655    5550.2923     2924.207    32.371953    262.78655 
 1539000    252.87053    3473.6856     2924.207    31.906774    252.87053 
 1540000    253.09778    4118.8804     2924.207    31.298384    253.09778 
 1541000    251.19654    7296.1549     2924.207    30.616047    251.19654 
 1542000     244.1626    9221.3356     2924.207     32.07644     244.1626 
 1543000    252.39009    7654.7787     2924.207    33.375099    252.39009 
 1544000    268.39501    4447.3444     2924.207    33.471795    268.39501 
 1545000    249.58294     3511.656     2924.207     33.43602    249.58294 
 1546000    251.64948      7537.51     2924.207    32.854716    251.64948 
 1547000    264.25542    6452.6131     2924.207    32.101746    264.25542 
 1548000    274.94098    5753.9196     2924.207    31.353726    274.94098 
 1549000    259.15994    5569.3363     2924.207    31.233825    259.15994 
 1550000    247.73011    12144.759     2924.207    32.051909    247.73011 
 1551000    254.59643     6254.654     2924.207    32.876538    254.59643 
 1552000    249.99727   -124.21694     2924.207    32.994234    249.99727 
 1553000    261.14584    6093.9518     2924.207    31.733405    261.14584 
 1554000    256.97166    10328.399     2924.207    30.578246    256.97166 
 1555000    252.04148    9539.9349     2924.207    30.226208    252.04148 
 1556000    251.72597   -465.33862     2924.207    28.769725    251.72597 
 1557000    251.87046    5178.9477     2924.207    27.082131    251.87046 
 1558000    257.76456    4543.3208     2924.207    25.027258    257.76456 
 1559000    255.14104    4960.9482     2924.207    25.501254    255.14104 
 1560000    273.49702    4067.0872     2924.207     26.37391    273.49702 
 1561000    265.50863    2789.7246     2924.207    24.907227    265.50863 
 1562000    253.51507    15595.575     2924.207    24.571016    253.51507 
 1563000    248.50534    3552.9596     2924.207    25.637358    248.50534 
 1564000    246.26187    5227.2996     2924.207    27.000907    246.26187 
 1565000       266.41    7643.1149     2924.207     27.76663       266.41 
 1566000    263.19345    4336.2523     2924.207    27.968199    263.19345 
 1567000    269.19248    4278.1031     2924.207    27.849917    269.19248 
 1568000    249.71575    11533.234     2924.207    27.755674    249.71575 
 1569000    259.65229    9856.1467     2924.207    27.657957    259.65229 
 1570000    261.26028    4826.9788     2924.207    28.117377    261.26028 
 1571000    239.02763    8441.6109     2924.207    28.442757    239.02763 
 1572000    253.68911     5369.331     2924.207     30.37918    253.68911 
 1573000    254.73414    1476.4895     2924.207    32.073451    254.73414 
 1574000    252.33932    11304.492     2924.207    30.645209    252.33932 
 1575000    262.15125    5768.9873     2924.207    29.878295    262.15125 
 1576000    260.14139    6650.1647     2924.207    30.420319    260.14139 
 1577000    254.73278    7139.2704     2924.207    30.671896    254.73278 
 1578000    243.45543    5830.0651     2924.207    27.836673    243.45543 
 1579000     252.9335    5175.7804     2924.207    25.418345     252.9335 
 1580000    245.45581     4323.013     2924.207    24.450267    245.45581 
 1581000    253.26523    7414.8389     2924.207    24.865019    253.26523 
 1582000    265.81042     7167.399     2924.207    25.422295    265.81042 
 1583000    264.81207    2249.9472     2924.207    27.152964    264.81207 
 1584000    259.47917    4621.0426     2924.207    27.712535    259.47917 
 1585000    253.18125    11231.496     2924.207    26.717881    253.18125 
 1586000    278.65515    4182.1171     2924.207    26.676468    278.65515 
 1587000    263.67703    1460.6766     2924.207     27.50704    263.67703 
 1588000    252.21601    6765.5249     2924.207    28.738082    252.21601 
 1589000    257.76863    5894.5388     2924.207    29.915779    257.76863 
 1590000    252.09234    5067.1819     2924.207    29.580972    252.09234 
 1591000    261.62864   -1316.0173     2924.207    27.744677    261.62864 
 1592000    244.78558     9236.368     2924.207    27.860098    244.78558 
 1593000    257.52029    10073.258     2924.207    29.887137    257.52029 
 1594000    252.01079    1397.5405     2924.207    28.896468    252.01079 
 1595000    253.85441    7455.8215     2924.207    26.857925    253.85441 
 1596000    243.27538    7382.3929     2924.207    25.395009    243.27538 
 1597000    256.57241    8848.3066     2924.207    24.269921    256.57241 
 1598000    256.38473    4768.8047     2924.207    24.362689    256.38473 
 1599000    259.14938    3725.5149     2924.207    25.921877    259.14938 
 1600000    257.92165    9652.6505     2924.207    25.015408    257.92165 
 1601000     244.8019    11299.014     2924.207    23.738601     244.8019 
 1602000    262.07113    4442.0522     2924.207    24.930126    262.07113 
 1603000    247.45358   -128.58565     2924.207    26.073007    247.45358 
 1604000    246.61647     16644.08     2924.207    26.371343    246.61647 
 1605000    243.93483    10153.649     2924.207    24.530253    243.93483 
 1606000    253.11584    285.54229     2924.207    24.993439    253.11584 
 1607000    253.03989    2663.1002     2924.207    25.635129    253.03989 
 1608000    255.34994    14581.884     2924.207    25.882855    255.34994 
 1609000    254.09479    7578.7932     2924.207    25.690267    254.09479 
 1610000    227.64513   -971.17192     2924.207    24.999631    227.64513 
 1611000    267.23218    7066.3648     2924.207    25.988152    267.23218 
 1612000    255.27067    14086.993     2924.207    27.609661    255.27067 
 1613000    244.87668    9664.4726     2924.207    27.975383    244.87668 
 1614000    263.22892    -1288.144     2924.207    25.902322    263.22892 
 1615000       263.31    555.47698     2924.207    22.560847       263.31 
 1616000    260.08896    17179.855     2924.207    20.878191    260.08896 
 1617000    262.41265    8721.9887     2924.207    22.609379    262.41265 
 1618000    254.62551    778.66794     2924.207    24.195657    254.62551 
 1619000    262.41945   -1121.9793     2924.207    25.665236    262.41945 
 1620000    267.41023    15138.309     2924.207     24.85405    267.41023 
 1621000    239.77221    7658.7673     2924.207    25.188959    239.77221 
 1622000    256.65579   -1668.7495     2924.207     23.76432    256.65579 
 1623000    262.95792    8963.3779     2924.207    21.596744    262.95792 
 1624000    267.98035    15191.859     2924.207    21.747459    267.98035 
 1625000    265.08381   -3417.9678     2924.207    23.519249    265.08381 
 1626000    259.18055    4672.7045     2924.207    26.342936    259.18055 
 1627000    256.42875    9861.6837     2924.207    26.784845    256.42875 
 1628000    246.41794    10054.696     2924.207    28.181995    246.41794 
 1629000    254.61742   -2413.9705     2924.207    28.357508    254.61742 
 1630000    266.56946    4327.1169     2924.207    29.078504    266.56946 
 1631000    253.46687    15953.929     2924.207    29.701186    253.46687 
 1632000    240.01591    5219.5155     2924.207    28.154295    240.01591 
 1633000    255.44084    1113.8878     2924.207    27.501566    255.44084 
 1634000    260.91072    5666.8269     2924.207    26.966334    260.91072 
 1635000    251.32112    9188.8425     2924.207    27.211705    251.32112 
 1636000    247.73472    10242.642     2924.207    29.367618    247.73472 
 1637000    246.22822     3164.916     2924.207    31.373097    246.22822 
 1638000    254.80891    8524.0817     2924.207    30.405919    254.80891 
 1639000    266.06727    9999.3004     2924.207    29.188981    266.06727 
 1640000    249.61741    6739.0765     2924.207    29.242338    249.61741 
 1641000    263.74891    1085.3724     2924.207    30.222242    263.74891 
 1642000    258.05711    4052.5337     2924.207    29.631152    258.05711 
 1643000    243.58133    6105.3466     2924.207    28.997209    243.58133 
 1644000    253.75689    8796.2357     2924.207    30.109426    253.75689 
 1645000    242.32466    2229.9345     2924.207    29.939544    242.32466 
 1646000    236.67641    4322.2544     2924.207    27.239469    236.67641 
 1647000    262.77592    2216.7534     2924.207     26.87506    262.77592 
 1648000    250.99602    12146.345     2924.207    26.498437    250.99602 
 1649000    249.87579    6345.4619     2924.207    26.833027    249.87579 
 1650000    254.26855   -3282.4072     2924.207    27.206495    254.26855 
 1651000    261.05183    15806.285     2924.207    26.577076    261.05183 
 1652000    254.09836    12415.838     2924.207     26.09429    254.09836 
 1653000    238.07131    1232.6258     2924.207    27.804887    238.07131 
 1654000    258.09429    -191.3456     2924.207     29.97187    258.09429 
 1655000    253.03839    11055.566     2924.207     30.84222    253.03839 
 1656000     277.1899    14168.586     2924.207    29.395519     277.1899 
 1657000    241.77188   -1290.9081     2924.207    28.603656    241.77188 
 1658000    249.01642   -667.84352     2924.207    28.513525    249.01642 
 1659000    247.77414    12125.574     2924.207     27.68768    247.77414 
 1660000    254.80802    9549.5905     2924.207    27.750188    254.80802 
 1661000    269.77724    382.74431     2924.207    28.726532    269.77724 
 1662000     247.7793   -707.77697     2924.207    28.772425     247.7793 
 1663000    254.37202    15410.324     2924.207    29.688056    254.37202 
 1664000    259.91453    12031.804     2924.207    30.376568    259.91453 
 1665000    261.89133    95.959843     2924.207    28.879283    261.89133 
 1666000    257.32852   -1368.4807     2924.207    26.901859    257.32852 
 1667000    253.08145    9771.0468     2924.207    24.450727    253.08145 
 1668000    258.69759    12603.342     2924.207    21.924561    258.69759 
 1669000    243.55054   -3433.1989     2924.207    19.143359    243.55054 
 1670000    263.49784    5765.4352     2924.207    17.802204    263.49784 
 1671000     249.4775    10998.393     2924.207    16.991793     249.4775 
 1672000    252.20283    10709.795     2924.207    16.675596    252.20283 
 1673000    243.66869   -712.52843     2924.207    16.535276    243.66869 
 1674000    245.64657    8535.8273     2924.207    17.341951    245.64657 
 1675000    252.48474    5450.3721     2924.207    20.355189    252.48474 
 1676000    257.35075    4632.0766     2924.207    22.438671    257.35075 
 1677000    261.25829    10268.532     2924.207     23.29581    261.25829 
 1678000    245.59297    7022.8965     2924.207    24.678757    245.59297 
 1679000    250.55143    8395.9381     2924.207     25.57121    250.55143 
 1680000    268.73276    3148.7843     2924.207    25.662527    268.73276 
 1681000    258.19256    4126.3472     2924.207    25.205592    258.19256 
 1682000    256.56273    4559.3915     2924.207    26.011893    256.56273 
 1683000    266.79245    10561.576     2924.207    26.180049    266.79245 
 1684000    264.14404    3786.0536     2924.207    24.575414    264.14404 
 1685000    274.04334   -339.01175     2924.207    24.371018    274.04334 
 1686000     244.0808    6856.5144     2924.207    26.120564     244.0808 
 1687000    246.95038     11763.96     2924.207     26.70734    246.95038 
 1688000    256.98081     5228.664     2924.207    26.763946    256.98081 
 1689000    267.97359    2696.0772     2924.207    27.776547    267.97359 
 1690000     260.2695    7555.8354     2924.207    28.681627     260.2695 
 1691000    247.04732    14221.978     2924.207    28.209179    247.04732 
 1692000    248.56707   -3724.7119     2924.207    28.483978    248.56707 
 1693000    260.26593    4774.1136     2924.207    29.671086    260.26593 
 1694000     245.2452    13564.368     2924.207    29.471167     245.2452 
 1695000    256.37734    12196.271     2924.207    30.216178    256.37734 
 1696000     259.2453   -4004.6762     2924.207    31.373748     259.2453 
 1697000    251.86395    4188.9371     2924.207    31.900543    251.86395 
 1698000     261.2891    13304.682     2924.207    31.046592     261.2891 
 1699000    239.05261    3831.9677     2924.207    31.078384    239.05261 
 1700000    252.91102    5953.8023     2924.207    31.353981    252.91102 
 1701000    268.42793    3994.0037     2924.207    31.006353    268.42793 
 1702000    250.33988    11766.571     2924.207    31.130284    250.33988 
 1703000    250.01797    6964.1288     2924.207    31.712286    250.01797 
 1704000     258.3342    3312.0662     2924.207    32.057816     258.3342 
 1705000    238.53388    6016.9224     2924.207    30.186931    238.53388 
 1706000    256.23961    6895.7428     2924.207    27.780432    256.23961 
 1707000     235.5283    10136.258     2924.207    27.390693     235.5283 
 1708000     239.2897    2316.5824     2924.207    28.202865     239.2897 
 1709000    262.54802     5870.945     2924.207    28.307259    262.54802 
 1710000    258.46905    7351.4351     2924.207     27.68459    258.46905 
 1711000    255.15461    2390.6903     2924.207    28.898249    255.15461 
 1712000    258.50858    5119.9083     2924.207    30.002015    258.50858 
 1713000    254.75339     5778.403     2924.207    29.699795    254.75339 
 1714000     235.9669    5779.5315     2924.207    28.852203     235.9669 
 1715000    246.38743     6485.519     2924.207    27.633294    246.38743 
 1716000    257.21284    4316.6643     2924.207    28