
#--------------------------------------------------------------------------
#nve rescale
#--------------------------------------------------------------------------
	velocity 		all create ${T_run} ${seed} rot yes dist gaussian
	velocity 		all create 300 ${seed} rot yes dist gaussian
	velocity 		all create 300 11111 rot yes dist gaussian

	fix 			1 all nve
	fix 			2 all temp/rescale 1 ${T_run} ${T_run} 0.01 1.0
	fix 			2 all temp/rescale 1 300 ${T_run} 0.01 1.0
	fix 			2 all temp/rescale 1 300 300 0.01 1.0
	compute 	movingTemp moving temp
	fix_modify	2 temp movingTemp
WARNING: Group for fix_modify temp != fix group (fix_temp_rescale.cpp:218)
	fix		3 moving ave/time 10 100 1000 c_movingTemp
    	thermo_style	custom step c_movingTemp press etotal pe ke vol
	thermo        	1000
	timestep	${dt}
	timestep	0.0010000000000000000208
	thermo_style  	custom step temp press etotal vol
	thermo		1000
	run             100000
Memory usage per processor = 4.95904 Mbytes
Step Temp Press TotEng Volume 
       0          300    177883.56   -1574.5439     2924.207 
    1000          300     5683.159    -1596.005     2924.207 
    2000          300    37097.238   -1598.2001     2924.207 
    3000          300    27317.505   -1597.3101     2924.207 
    4000          300    23439.579   -1598.0248     2924.207 
    5000          300   -10875.768   -1597.8114     2924.207 
    6000          300   -20045.358   -1596.8704     2924.207 
    7000          300    -14126.19   -1596.8434     2924.207 
    8000          300    18091.034   -1597.9706     2924.207 
    9000          300    35426.866   -1597.7847     2924.207 
   10000          300    23274.548   -1597.8978     2924.207 
   11000          300   -6676.2267   -1597.1715     2924.207 
   12000          300   -20787.012   -1596.9291     2924.207 
   13000          300   -9321.0283   -1597.6226     2924.207 
   14000          300    14385.363   -1597.6574     2924.207 
   15000          300     20792.22   -1597.9022     2924.207 
   16000          300    10459.395    -1597.532     2924.207 
   17000          300   -5571.2745   -1597.3293     2924.207 
   18000          300   -7613.4137   -1596.8679     2924.207 
   19000          300    2924.4019   -1598.0852     2924.207 
   20000          300    14668.395   -1597.8323     2924.207 
   21000          300    19424.623   -1597.4197     2924.207 
   22000          300    7260.8261   -1597.6878     2924.207 
   23000          300   -4530.3407   -1597.2199     2924.207 
   24000          300   -11658.021   -1596.6635     2924.207 
   25000          300    13012.082   -1597.1622     2924.207 
   26000          300     21184.47   -1596.8661     2924.207 
   27000          300    7684.0224   -1597.1406     2924.207 
   28000          300   -1928.7817   -1597.0704     2924.207 
   29000          300    235.32596   -1597.3767     2924.207 
   30000          300    13592.722   -1597.4138     2924.207 
   31000          300    13568.647   -1597.2816     2924.207 
   32000          300    2246.2241   -1596.9443     2924.207 
   33000          300    1672.6797   -1597.2308     2924.207 
   34000          300    17026.372   -1597.3398     2924.207 
   35000          300    8207.0819   -1597.9358     2924.207 
   36000          300   -4766.3931   -1597.6134     2924.207 
   37000          300    8550.0961   -1597.8194     2924.207 
   38000          300    13800.947   -1597.2216     2924.207 
   39000          300    5054.6868   -1597.1028     2924.207 
   40000          300    8418.6989   -1597.2181     2924.207 
   41000          300    11205.714   -1597.4508     2924.207 
   42000          300    2996.0985   -1597.7109     2924.207 
   43000          300    5063.0968   -1597.6377     2924.207 
   44000          300    10340.011   -1597.0267     2924.207 
   45000          300    21314.758    -1596.417     2924.207 
   46000          300    10636.938    -1597.877     2924.207 
   47000          300     6531.152    -1597.265     2924.207 
   48000          300    5444.8996   -1597.6784     2924.207 
   49000          300    14234.488   -1597.9493     2924.207 
   50000          300    5905.9022   -1597.1301     2924.207 
   51000          300    13337.315   -1597.8108     2924.207 
   52000          300    5637.8633   -1597.6769     2924.207 
   53000          300    9839.1966   -1598.3836     2924.207 
   54000          300    9796.2213   -1598.0418     2924.207 
   55000          300    11254.447   -1597.8164     2924.207 
   56000          300    8941.8303   -1598.1331     2924.207 
   57000          300    5113.3383   -1597.6797     2924.207 
   58000          300    13162.245   -1597.2818     2924.207 
   59000          300    4368.1466    -1598.714     2924.207 
   60000          300    10892.085     -1598.37     2924.207 
   61000          300    1710.5757   -1597.8698     2924.207 
   62000          300    17850.159    -1597.676     2924.207 
   63000          300    13091.073   -1597.6256     2924.207 
   64000          300    9329.0883   -1597.7471     2924.207 
   65000          300     12611.28   -1598.0493     2924.207 
   66000          300    13237.155   -1598.0751     2924.207 
   67000          300    2507.6312   -1598.8184     2924.207 
   68000          300    13035.466   -1596.7601     2924.207 
   69000          300    12279.496    -1598.116     2924.207 
   70000          300     19116.17    -1598.229     2924.207 
   71000          300    8470.8275   -1598.5239     2924.207 
   72000          300    13093.744   -1599.0074     2924.207 
   73000          300     11987.87   -1597.7526     2924.207 
   74000          300    9786.9527   -1598.1048     2924.207 
   75000          300    11838.554   -1598.5913     2924.207 
   76000          300    16744.753   -1598.8452     2924.207 
   77000          300    6839.2686   -1598.6384     2924.207 
   78000          300    9509.2648   -1598.8004     2924.207 
   79000          300    11069.798   -1599.0826     2924.207 
   80000          300    15377.867   -1598.5336     2924.207 
   81000          300    18196.824   -1599.0718     2924.207 
   82000          300    14536.161   -1597.9652     2924.207 
   83000          300    11316.769   -1599.4235     2924.207 
   84000          300    11677.972   -1599.0732     2924.207 
   85000          300    8941.4825   -1600.0837     2924.207 
   86000          300    12546.077   -1598.7419     2924.207 
   87000          300    11451.295   -1599.2924     2924.207 
   88000          300    8152.7498   -1598.7169     2924.207 
   89000          300    12612.081   -1599.2121     2924.207 
   90000          300    11435.084   -1599.2899     2924.207 
   91000          300    19388.974   -1600.0205     2924.207 
   92000          300    8794.1782   -1599.9397     2924.207 
   93000          300    20313.459    -1598.485     2924.207 
   94000          300    9724.3478    -1600.463     2924.207 
   95000          300    8931.6978   -1600.3955     2924.207 
   96000          300    23178.351    -1599.208     2924.207 
   97000          300    5968.4289   -1600.5795     2924.207 
   98000          300    21597.875   -1599.2477     2924.207 
   99000          300    9194.0941   -1599.2004     2924.207 
  100000          300    11751.414   -1601.0424     2924.207 
Loop time of 1950.57 on 1 procs for 100000 steps with 240 atoms

Pair  time (%) = 1937.51 (99.3304)
Bond  time (%) = 0.0255795 (0.00131138)
Neigh time (%) = 5.16321 (0.264703)
Comm  time (%) = 5.39908 (0.276795)
Outpt time (%) = 0.00517201 (0.000265154)
Other time (%) = 2.46782 (0.126518)

Nlocal:    240 ave 240 max 240 min
Histogram: 1 0 0 0 0 0 0 0 0 0
Nghost:    5955 ave 5955 max 5955 min
Histogram: 1 0 0 0 0 0 0 0 0 0
Neighs:    91097 ave 91097 max 91097 min
Histogram: 1 0 0 0 0 0 0 0 0 0
FullNghs:  182194 ave 182194 max 182194 min
Histogram: 1 0 0 0 0 0 0 0 0 0

Total # of neighbors = 182194
Ave neighs/atom = 759.142
Ave special neighs/atom = 0
Neighbor list builds = 413
Dangerous builds = 0
#	run             1000
	unfix 		1
	unfix 		2
#--------------------------------------------------------------------------
#nve
#--------------------------------------------------------------------------
	fix 			1 all nve
	timestep		${dt}
	timestep		0.0010000000000000000208
	thermo_style  		custom step temp press etotal vol
	thermo			1000
	run             	100000
Memory usage per processor = 5.41681 Mbytes
Step Temp Press TotEng Volume 
  100000          300    11751.414   -1601.0424     2924.207 
  101000    243.51083    12986.643    -1601.037     2924.207 
  102000    290.32792    14378.435   -1601.0425     2924.207 
  103000    299.99519    17035.723   -1601.0423     2924.207 
  104000    256.30298        10587    -1601.042     2924.207 
  105000    307.11661    13530.678   -1601.0493     2924.207 
  106000    273.84297    11632.131    -1601.039     2924.207 
  107000    278.46525    17348.813   -1601.0415     2924.207 
  108000    299.28569    6837.4319   -1601.0432     2924.207 
  109000     249.9405    18998.848   -1601.0432     2924.207 
  110000    294.40218    14280.592   -1601.0437     2924.207 
  111000    262.86599    9855.3235     -1601.04     2924.207 
  112000    271.46579    7810.8167   -1601.0358     2924.207 
  113000     284.0467    18141.733   -1601.0414     2924.207 
  114000    289.26475    8488.3811   -1601.0411     2924.207 
  115000    287.40291    12845.966   -1601.0402     2924.207 
  116000    261.77667    8459.8482   -1601.0373     2924.207 
  117000    284.25686    10396.745   -1601.0427     2924.207 
  118000    272.96703    15107.772   -1601.0389     2924.207 
  119000    288.14042    15306.558   -1601.0447     2924.207 
  120000    297.88201    9043.3924   -1601.0426     2924.207 
  121000    287.14285    4438.0856   -1601.0391     2924.207 
  122000    278.25488    21310.748   -1601.0442     2924.207 
  123000    283.70119    11228.004   -1601.0465     2924.207 
  124000    296.24356    9066.0771   -1601.0372     2924.207 
  125000    279.65712    15076.087   -1601.0412     2924.207 
  126000    262.00648    13204.478   -1601.0393     2924.207 
  127000    303.98342    8769.9638   -1601.0481     2924.207 
  128000    273.62538    14015.684   -1601.0464     2924.207 
  129000    306.13317    9043.6879    -1601.044     2924.207 
  130000    294.79151    13279.912   -1601.0436     2924.207 
  131000    261.37613    6942.7816   -1601.0383     2924.207 
  132000    283.57817    17945.366    -1601.041     2924.207 
  133000    276.06612     10696.68   -1601.0469     2924.207 
  134000    303.15941    8509.5984   -1601.0469     2924.207 
  135000    248.71647    9166.1108   -1601.0429     2924.207 
  136000    295.98764    12485.897   -1601.0424     2924.207 
  137000     271.3747    8825.4512   -1601.0442     2924.207 
  138000    286.02381    9402.6385   -1601.0437     2924.207 
  139000    288.76575    11197.148   -1601.0469     2924.207 
  140000    287.50356    10505.906   -1601.0436     2924.207 
  141000    266.24599    14800.791   -1601.0416     2924.207 
  142000    291.54636    7666.1839   -1601.0465     2924.207 
  143000     267.3138     9888.545   -1601.0444     2924.207 
  144000    278.95188    12504.856   -1601.0407     2924.207 
  145000    267.31465    14461.555   -1601.0406     2924.207 
  146000    259.59956    9610.4434   -1601.0398     2924.207 
  147000    262.39084    10095.792   -1601.0428     2924.207 
  148000    288.65946    14518.445   -1601.0479     2924.207 
  149000    275.34053    12119.567   -1601.0428     2924.207 
  150000    265.57979    15114.181   -1601.0478     2924.207 
  151000    275.56135    17660.774   -1601.0399     2924.207 
  152000    269.12388    13106.604   -1601.0506     2924.207 
  153000    282.55182    10331.019   -1601.0445     2924.207 
  154000     249.2689    19948.051   -1601.0506     2924.207 
  155000    302.73354     10250.66   -1601.0486     2924.207 
  156000    235.37956    18046.599   -1601.0444     2924.207 
  157000    281.63498    12234.833   -1601.0446     2924.207 
  158000    258.03855    15451.917   -1601.0483     2924.207 
  159000    280.39749    16066.454   -1601.0438     2924.207 
  160000    260.18784    19365.511   -1601.0457     2924.207 
  161000    262.64922    9808.6197   -1601.0473     2924.207 
  162000    264.47449    17303.956   -1601.0418     2924.207 
  163000     272.6009    11133.812   -1601.0447     2924.207 
  164000    269.63517    13627.019   -1601.0403     2924.207 
  165000    252.09719    15156.806   -1601.0444     2924.207 
  166000    259.63191    18161.374   -1601.0421     2924.207 
  167000    260.67722    12557.656   -1601.0449     2924.207 
  168000    294.57935    8565.9342    -1601.047     2924.207 
  169000    263.88608     13931.53   -1601.0467     2924.207 
  170000    268.74018    15527.997   -1601.0429     2924.207 
  171000    273.71845    13491.244   -1601.0431     2924.207 
  172000    258.79055     19385.09   -1601.0463     2924.207 
  173000    267.57851    14235.376   -1601.0448     2924.207 
  174000    277.33124    13783.267   -1601.0474     2924.207 
  175000    265.04974     12423.82   -1601.0409     2924.207 
  176000    274.39309    13442.311   -1601.0491     2924.207 
  177000    261.84014    16202.134   -1601.0381     2924.207 
  178000     277.2218    9055.3927   -1601.0438     2924.207 
  179000    272.31621    14716.161   -1601.0459     2924.207 
  180000    254.49129    15193.301   -1601.0408     2924.207 
  181000    300.97671    8621.9538   -1601.0398     2924.207 
  182000    257.72775    15415.661   -1601.0449     2924.207 
  183000    287.46082    9291.5394   -1601.0438     2924.207 
  184000    253.93263    15220.793   -1601.0392     2924.207 
  185000     284.8787    203.20359   -1601.0481     2924.207 
  186000    244.69452    20470.317   -1601.0407     2924.207 
  187000    286.11505    5211.4701   -1601.0452     2924.207 
  188000    265.82385    15220.431   -1601.0436     2924.207 
  189000    281.34145     13035.58   -1601.0458     2924.207 
  190000     252.7082    13087.457   -1601.0462     2924.207 
  191000    303.50748    7810.2416   -1601.0468     2924.207 
  192000    240.01879    16876.245   -1601.0391     2924.207 
  193000    283.94427    15749.404   -1601.0508     2924.207 
  194000    254.46755    11773.002   -1601.0435     2924.207 
  195000     270.4924    6752.6147   -1601.0387     2924.207 
  196000    276.78895    7237.3103   -1601.0467     2924.207 
  197000    270.51036    16391.996   -1601.0409     2924.207 
  198000    250.28256    23845.932   -1601.0476     2924.207 
  199000    275.84291    3812.6967   -1601.0381     2924.207 
  200000    265.84394     15364.97   -1601.0464     2924.207 
Loop time of 1988.07 on 1 procs for 100000 steps with 240 atoms

Pair  time (%) = 1969.76 (99.079)
Bond  time (%) = 0.027741 (0.00139537)
Neigh time (%) = 10.5226 (0.529288)
Comm  time (%) = 5.57961 (0.280655)
Outpt time (%) = 0.00541282 (0.000272265)
Other time (%) = 2.17489 (0.109397)

Nlocal:    240 ave 240 max 240 min
Histogram: 1 0 0 0 0 0 0 0 0 0
Nghost:    5979 ave 5979 max 5979 min
Histogram: 1 0 0 0 0 0 0 0 0 0
Neighs:    91081 ave 91081 max 91081 min
Histogram: 1 0 0 0 0 0 0 0 0 0
FullNghs:  182162 ave 182162 max 182162 min
Histogram: 1 0 0 0 0 0 0 0 0 0

Total # of neighbors = 182162
Ave neighs/atom = 759.008
Ave special neighs/atom = 0
Neighbor list builds = 829
Dangerous builds = 0
#	run             	1000
	unfix 			1
#--------------------------------------------------------------------------
#kappa
#--------------------------------------------------------------------------
log 	log_cond_${seed}.lammps
log 	log_cond_11111.lammps
