	reset_timestep  	0
	fix 			1 all nve

	compute		keSource all ke/atom
	compute		keSource2 all atom/molecule c_keSource
	compute		keSink all ke/atom
	compute		keSink2 all atom/molecule c_keSink
	fix		cRes hSink heat 1 -${heat}
	fix		cRes hSink heat 1 -0.050000000000000002776
	fix		hRes hSource heat 1 ${heat}
	fix		hRes hSource heat 1 0.050000000000000002776
	fix		3 moving ave/time 10 100 1000 c_movingTemp
    	thermo_style	custom step c_movingTemp press etotal pe ke vol

	fix 		kemolSource all ave/time 10 100 1000 c_keSource2 file kemolSource.txt mode vector
	fix 		kemolSink all ave/time 10 100 1000 c_keSink2 file kemolSink.txt mode vector

	compute 		myDis all msd
	thermo_style 		custom step temp press vol c_myDis[4] c_movingTemp
	thermo			1000
	timestep		${dt}
	timestep		0.0010000000000000000208
	run			1000000
WARNING: More than one compute ke/atom (compute_ke_atom.cpp:55)
WARNING: More than one compute ke/atom (compute_ke_atom.cpp:55)
Memory usage per processor = 5.6513 Mbytes
Step Temp Press Volume myDis[4] movingTe 
       0    265.84394     15364.97     2924.207 2.5190103e-30    265.84394 
    1000     233.6889    19272.994     2924.207    5.0386797     233.6889 
    2000    270.83989     14666.94     2924.207    15.328717    270.83989 
    3000    241.28963    12641.609     2924.207    23.660085    241.28963 
    4000    269.39391    10001.831     2924.207    28.177033    269.39391 
    5000    262.53475      15309.7     2924.207    29.889706    262.53475 
    6000    254.44413    15995.636     2924.207     28.32098    254.44413 
    7000    267.16631    15601.454     2924.207    25.980464    267.16631 
    8000    288.56595    13354.998     2924.207    22.912233    288.56595 
    9000    268.73117     10137.69     2924.207     25.00418    268.73117 
   10000    273.07234    21240.536     2924.207    26.996133    273.07234 
   11000    261.93935    16330.183     2924.207     27.63621    261.93935 
   12000    262.86501    21383.259     2924.207    27.767532    262.86501 
   13000     274.7357    12031.466     2924.207    25.484573     274.7357 
   14000     238.2255    18874.634     2924.207     22.37915     238.2255 
   15000    269.45843    13849.943     2924.207    20.609969    269.45843 
   16000    277.35924    10971.047     2924.207    22.372098    277.35924 
   17000    251.86888    18112.633     2924.207    24.847214    251.86888 
   18000    281.73772    10280.802     2924.207     25.98107    281.73772 
   19000    275.12796    12240.653     2924.207    24.716533    275.12796 
   20000    286.14355      11330.6     2924.207    24.570654    286.14355 
   21000    271.91327     9617.576     2924.207    23.684786    271.91327 
   22000    278.04687    18672.621     2924.207    22.300946    278.04687 
   23000    281.31747    5885.0299     2924.207    20.707952    281.31747 
   24000    268.93349    16877.937     2924.207    21.010373    268.93349 
   25000    287.84995    6356.7013     2924.207    22.926873    287.84995 
   26000    285.95883    8517.6266     2924.207    25.898428    285.95883 
   27000    279.63664    11871.893     2924.207     28.67753    279.63664 
   28000    281.50338    11937.119     2924.207    31.510296    281.50338 
   29000    276.12562    8918.9079     2924.207    33.317714    276.12562 
   30000    274.98868     12492.86     2924.207    33.664796    274.98868 
   31000    285.17727     14722.35     2924.207    34.869597    285.17727 
   32000    267.48818    12973.049     2924.207     31.05551    267.48818 
   33000    280.05909    12290.197     2924.207    27.326373    280.05909 
   34000    268.14255    13060.807     2924.207    23.730429    268.14255 
   35000     288.6682    4262.9841     2924.207     16.42744     288.6682 
   36000    256.03044    22746.598     2924.207    14.279009    256.03044 
   37000    266.83037    5524.1523     2924.207    22.540236    266.83037 
   38000    282.67101    21193.862     2924.207    30.650581    282.67101 
   39000    214.59983    9770.1862     2924.207    30.531276    214.59983 
   40000     287.4092    13009.941     2924.207    25.699434     287.4092 
   41000    262.83065    6271.0457     2924.207    23.117968    262.83065 
   42000    262.65514     18458.56     2924.207    25.422135    262.65514 
   43000    277.61731     6240.093     2924.207     28.36126    277.61731 
   44000    267.49914    25117.362     2924.207    31.379282    267.49914 
   45000    275.87439    10709.789     2924.207     32.99368    275.87439 
   46000    245.13163    20817.423     2924.207    32.702307    245.13163 
   47000    264.98421    7251.2773     2924.207    32.866705    264.98421 
   48000    251.68777    21467.207     2924.207    31.457345    251.68777 
   49000    280.97945    8813.2216     2924.207    28.709559    280.97945 
   50000    264.34792    19384.231     2924.207    28.637397    264.34792 
   51000    250.79447    10459.817     2924.207    31.801367    250.79447 
   52000    261.79219    10995.714     2924.207    33.675783    261.79219 
   53000    255.07576    20163.506     2924.207    32.432582    255.07576 
   54000    279.34919    9601.9462     2924.207    29.093932    279.34919 
   55000    277.05605     14504.55     2924.207    32.189244    277.05605 
   56000    238.01705    17928.044     2924.207    35.585291    238.01705 
   57000    264.79058    8105.6893     2924.207    34.426323    264.79058 
   58000    275.40508    15632.925     2924.207    33.612122    275.40508 
   59000    285.39474     6418.888     2924.207    31.011208    285.39474 
   60000    257.61983    9727.7195     2924.207    27.879174    257.61983 
   61000    264.01065    19299.124     2924.207    28.003941    264.01065 
   62000    296.81421    5932.8702     2924.207    32.104405    296.81421 
   63000    255.37895    17363.322     2924.207    34.491836    255.37895 
   64000    274.59359    7775.2605     2924.207    33.293128    274.59359 
   65000    253.37649    16946.632     2924.207    26.638042    253.37649 
   66000    263.66541    8889.3904     2924.207    21.097574    263.66541 
   67000    269.56406    5501.6438     2924.207    22.737829    269.56406 
   68000    263.75028    19751.685     2924.207    26.646207    263.75028 
   69000    271.71807     10318.02     2924.207    29.663465    271.71807 
   70000    266.63487    13136.588     2924.207    27.243925    266.63487 
   71000    286.21046    7487.1098     2924.207    21.820784    286.21046 
   72000    261.08643    21779.758     2924.207    18.312569    261.08643 
   73000    286.31944    7500.3027     2924.207    19.463044    286.31944 
   74000    264.66598    20226.791     2924.207    22.664579    264.66598 
   75000    244.44543    15222.079     2924.207    24.383736    244.44543 
   76000    297.19566    13398.445     2924.207    24.655028    297.19566 
   77000    253.12519      17159.5     2924.207      27.6997    253.12519 
   78000    290.17881    11248.791     2924.207    26.921775    290.17881 
   79000    254.24271    11755.563     2924.207    24.218001    254.24271 
   80000    283.74906    11478.908     2924.207    20.809045    283.74906 
   81000    275.19285    10945.493     2924.207    21.547213    275.19285 
   82000    260.17792    12768.183     2924.207    24.188918    260.17792 
   83000    266.09742    7948.8672     2924.207    27.648752    266.09742 
   84000     274.7937    11530.785     2924.207    31.826543     274.7937 
   85000    282.58047     8397.642     2924.207    33.958656    282.58047 
   86000    271.92718     4250.022     2924.207    28.859394    271.92718 
   87000    276.29291    16935.182     2924.207    24.705839    276.29291 
   88000    288.18762     9405.072     2924.207    27.163622    288.18762 
   89000    271.48761    4796.6504     2924.207    28.616044    271.48761 
   90000    267.34852     18644.27     2924.207    23.950682    267.34852 
   91000    273.08674    5590.0854     2924.207    22.267216    273.08674 
   92000    278.55979    17189.065     2924.207    28.019541    278.55979 
   93000    281.99687    7351.6113     2924.207    31.687152    281.99687 
   94000    289.18117    6816.6761     2924.207    27.777046    289.18117 
   95000    289.04565    12929.167     2924.207    21.700889    289.04565 
   96000    284.25095    5919.8939     2924.207    24.563612    284.25095 
   97000    298.10905     6050.702     2924.207    26.719754    298.10905 
   98000    275.01367    11047.646     2924.207    21.899679    275.01367 
   99000    269.89501    4940.8495     2924.207    23.289084    269.89501 
  100000    279.14762    21905.557     2924.207      30.8924    279.14762 
  101000    294.34631    4789.1704     2924.207    33.725242    294.34631 
  102000    275.81361    3547.9542     2924.207     31.12163    275.81361 
  103000    281.60767    12130.624     2924.207    29.026599    281.60767 
  104000    270.91559    5544.4148     2924.207    29.198482    270.91559 
  105000    268.93286    18132.204     2924.207     30.63262    268.93286 
  106000    290.61254    7434.4395     2924.207    31.664998    290.61254 
  107000    266.75234    13878.559     2924.207     29.54496    266.75234 
  108000    284.64481    8278.8092     2924.207    27.205876    284.64481 
  109000     262.3059    9702.6441     2924.207    26.718379     262.3059 
  110000    275.08106    14106.255     2924.207    29.500966    275.08106 
  111000    268.44687    10580.723     2924.207     34.70507    268.44687 
  112000    278.12032     13101.56     2924.207    27.012142    278.12032 
  113000    262.08931    8149.4305     2924.207    15.257161    262.08931 
  114000    293.85247    9931.5948     2924.207    16.733208    293.85247 
  115000    269.18523    13198.695     2924.207    28.224189    269.18523 
  116000    289.33853    1879.9375     2924.207    29.978512    289.33853 
  117000    281.89511     16938.17     2924.207    23.689372    281.89511 
  118000    277.00656    8796.9058     2924.207    19.239588    277.00656 
  119000    276.54375    11538.652     2924.207    19.745441    276.54375 
  120000     292.3774    13249.238     2924.207     23.73296     292.3774 
  121000    278.74126    6563.8062     2924.207    25.384906    278.74126 
  122000    271.50821    9994.6832     2924.207    24.995118    271.50821 
  123000    293.29017     18088.33     2924.207    24.955612    293.29017 
  124000    242.23192    11305.221     2924.207    25.890563    242.23192 
  125000    267.77114    14175.063     2924.207    23.845638    267.77114 
  126000    275.13308    5444.7462     2924.207     22.74005    275.13308 
  127000    250.74176    12515.186     2924.207    21.297113    250.74176 
  128000    257.09536    6382.6338     2924.207    16.828433    257.09536 
  129000    271.36559    10180.421     2924.207    15.965148    271.36559 
  130000    263.50088    15548.238     2924.207    21.633712    263.50088 
  131000      246.639      14067.3     2924.207    29.061601      246.639 
  132000    272.43336    6929.2726     2924.207    31.822064    272.43336 
  133000    245.54114    14498.451     2924.207    29.348682    245.54114 
  134000    233.32961    10378.542     2924.207    24.372109    233.32961 
  135000    250.03505    17354.032     2924.207    19.444445    250.03505 
  136000    268.07506    8691.1075     2924.207    15.984737    268.07506 
  137000    265.35276     15266.91     2924.207    13.951841    265.35276 
  138000     233.8933    18386.517     2924.207    15.932724     233.8933 
  139000    265.48073    11651.663     2924.207    22.889406    265.48073 
  140000    257.98763    12366.171     2924.207    27.862027    257.98763 
  141000    263.48789    10920.791     2924.207    28.666939    263.48789 
  142000    245.84385    21564.629     2924.207    28.222332    245.84385 
  143000    267.95927    4312.7693     2924.207    23.529528    267.95927 
  144000    267.94809    18392.042     2924.207    21.055823    267.94809 
  145000    241.24744     15804.39     2924.207    22.941142    241.24744 
  146000    257.47782    14537.128     2924.207    27.496995    257.47782 
  147000    234.63093    16234.745     2924.207    30.959902    234.63093 
  148000      256.421    9233.0303     2924.207    32.144309      256.421 
  149000    239.71169    16598.224     2924.207    29.769735    239.71169 
  150000      282.865    2861.0526     2924.207    27.596415      282.865 
  151000    255.54309    16377.084     2924.207    26.746586    255.54309 
  152000    277.62867     4663.193     2924.207    29.221054    277.62867 
  153000      239.174    16809.618     2924.207    28.707009      239.174 
  154000    258.03374    2798.7598     2924.207    28.585855    258.03374 
  155000    271.20153    9951.8609     2924.207    30.492007    271.20153 
  156000    270.80456    9490.7414     2924.207    32.093258    270.80456 
  157000     265.4481    10316.687     2924.207    33.440104     265.4481 
  158000     264.1962    10771.631     2924.207    34.330814     264.1962 
  159000    248.16811    12848.063     2924.207    35.639926    248.16811 
  160000    254.19597    10630.448     2924.207    34.075985    254.19597 
  161000    257.26173    17294.029     2924.207    30.135214    257.26173 
  162000    268.53543    7503.1027     2924.207    28.804574    268.53543 
  163000    262.14537    9872.3947     2924.207    31.539979    262.14537 
  164000    265.03857    14682.649     2924.207    33.677683    265.03857 
  165000    252.24784    15503.751     2924.207    32.595968    252.24784 
  166000    238.17151    13683.446     2924.207     30.14534    238.17151 
  167000    257.14259    8569.4955     2924.207    31.325905    257.14259 
  168000     257.8011    13776.463     2924.207    33.408751     257.8011 
  169000    268.26006    8576.7102     2924.207    32.969046    268.26006 
  170000     275.9119    1777.8777     2924.207    32.424103     275.9119 
  171000    264.20992    12870.405     2924.207    30.867929    264.20992 
  172000    269.40035    7776.3234     2924.207    30.637578    269.40035 
  173000     258.1963    12876.892     2924.207    29.779817     258.1963 
  174000    253.42251    13253.773     2924.207    28.761234    253.42251 
  175000    255.53121    12106.137     2924.207    26.902634    255.53121 
  176000    244.78942    10148.092     2924.207     24.00928    244.78942 
  177000    262.17216     6396.329     2924.207    20.908655    262.17216 
  178000     233.8311    21914.749     2924.207    22.366589     233.8311 
  179000    255.29969    7866.6142     2924.207    22.036277    255.29969 
  180000    247.52378    6242.0162     2924.207    22.726628    247.52378 
  181000     250.8879    17070.233     2924.207    22.835911     250.8879 
  182000    237.17347     15757.49     2924.207    24.001901    237.17347 
  183000    234.85751     9041.295     2924.207    26.043991    234.85751 
  184000     259.8986     5287.585     2924.207    27.375042     259.8986 
  185000    232.82907    8765.9567     2924.207    25.214452    232.82907 
  186000    272.40034    12380.757     2924.207    22.645559    272.40034 
  187000    248.54646    15753.779     2924.207    22.177001    248.54646 
  188000    255.67839    15703.506     2924.207    22.731587    255.67839 
  189000    247.39445    8468.1646     2924.207      25.9214    247.39445 
  190000    253.71805    16566.455     2924.207    28.856554    253.71805 
  191000    253.68175    13762.957     2924.207    27.178135    253.68175 
  192000    252.88582    6326.0828     2924.207    21.980279    252.88582 
  193000    265.41541    17357.927     2924.207    17.257781    265.41541 
  194000    251.52128    12155.622     2924.207    17.814042    251.52128 
  195000     242.3951    14644.026     2924.207    24.708271     242.3951 
  196000    262.44978    12580.555     2924.207    29.468428    262.44978 
  197000    256.77186      10300.8     2924.207    31.307158    256.77186 
  198000    255.43034    14615.987     2924.207    32.698649    255.43034 
  199000    239.97156    12992.583     2924.207    32.672025    239.97156 
  200000    261.64411      11254.4     2924.207    30.313054    261.64411 
  201000    260.02427    12413.386     2924.207    29.846316    260.02427 
  202000    256.82416     6835.175     2924.207    30.565475    256.82416 
  203000    226.28388    11068.283     2924.207    31.281925    226.28388 
  204000    266.60694     16059.88     2924.207    30.713197    266.60694 
  205000    235.01967    6183.1845     2924.207    28.291807    235.01967 
  206000    267.34399    12493.493     2924.207     25.94568    267.34399 
  207000     250.8446     11060.33     2924.207    25.444967     250.8446 
  208000    244.69428    2400.7555     2924.207    24.857388    244.69428 
  209000    238.23531    14073.586     2924.207    26.117234    238.23531 
  210000    263.18096      7689.37     2924.207    28.103259    263.18096 
  211000    236.36664     13081.34     2924.207    30.039197    236.36664 
  212000    255.70204    1813.2263     2924.207    31.609233    255.70204 
  213000    252.82639    11215.412     2924.207    33.470575    252.82639 
  214000    260.23839    6217.5279     2924.207    34.633255    260.23839 
  215000    269.37502    7908.0174     2924.207     33.10126    269.37502 
  216000    262.65917    9733.0872     2924.207    30.107924    262.65917 
  217000    255.17847    5937.3672     2924.207    26.544376    255.17847 
  218000    235.71634    5787.0832     2924.207    23.534264    235.71634 
  219000    253.51095    14388.973     2924.207     23.77795    253.51095 
  220000    264.64441    11046.349     2924.207    28.220944    264.64441 
  221000    245.86488     11959.99     2924.207    32.810001    245.86488 
  222000    273.73765    7402.0617     2924.207    34.457641    273.73765 
  223000    252.61803    10936.989     2924.207    31.263691    252.61803 
  224000    272.43795      6253.11     2924.207    26.266164    272.43795 
  225000    261.91626     6635.947     2924.207    25.424884    261.91626 
  226000    259.10206     10309.27     2924.207    26.750937    259.10206 
  227000    261.63315    7666.4464     2924.207    27.742326    261.63315 
  228000    250.25672    12977.622     2924.207    29.579489    250.25672 
  229000    255.34413     12022.47     2924.207    31.094262    255.34413 
  230000    261.81415    2585.3253     2924.207    30.524394    261.81415 
  231000     249.4753    12564.339     2924.207    25.379967     249.4753 
  232000    269.30121    5494.1425     2924.207    19.822626    269.30121 
  233000    253.84648    12815.737     2924.207     17.11305    253.84648 
  234000    250.61565    14485.703     2924.207     20.28993    250.61565 
  235000    250.71675    16430.257     2924.207    27.959466    250.71675 
  236000    264.32715    11101.255     2924.207    32.835926    264.32715 
  237000    238.42739     7038.269     2924.207    33.406443    238.42739 
  238000    254.48263    7222.6477     2924.207     30.05856    254.48263 
  239000    242.97114    8827.8403     2924.207    28.174008    242.97114 
  240000    258.28614     11437.83     2924.207    29.391069    258.28614 
  241000    266.83154    7225.3337     2924.207    29.457114    266.83154 
  242000    250.28342    10733.507     2924.207    29.182827    250.28342 
  243000    253.01543    14216.365     2924.207    26.001748    253.01543 
  244000    263.44997    5032.9802     2924.207    20.306116    263.44997 
  245000    213.46789    13083.639     2924.207    19.605363    213.46789 
  246000    260.01002    2133.5449     2924.207    21.828007    260.01002 
  247000     252.3988    21540.441     2924.207    25.643348     252.3988 
  248000    243.70126    9714.5906     2924.207    30.103598    243.70126 
  249000    256.60363    16295.873     2924.207     31.46964    256.60363 
  250000    225.84903    6238.5964     2924.207    29.452891    225.84903 
  251000    254.60646    9625.7579     2924.207     25.90492    254.60646 
  252000    259.87203    15127.083     2924.207    23.380169    259.87203 
  253000    262.47847    9520.3578     2924.207    21.250504    262.47847 
  254000    217.20057    5438.6835     2924.207    21.384166    217.20057 
  255000    244.20314    15428.214     2924.207    22.126053    244.20314 
  256000    249.77266    3111.1086     2924.207    22.925263    249.77266 
  257000    272.99523     12124.09     2924.207    24.760888    272.99523 
  258000    229.28051    13207.361     2924.207    24.467199    229.28051 
  259000    241.31685    478.95005     2924.207     25.53475    241.31685 
  260000    238.15206    11166.788     2924.207    26.132458    238.15206 
  261000    253.42382    11291.467     2924.207    26.796801    253.42382 
  262000     245.8013    12844.384     2924.207    29.416274     245.8013 
  263000    249.81469    8159.9848     2924.207     30.78911    249.81469 
  264000    266.75354    12585.392     2924.207    32.949176    266.75354 
  265000    255.12179    10044.134     2924.207    34.227243    255.12179 
  266000    249.24735    12821.445     2924.207    34.130201    249.24735 
  267000    251.97252    10984.108     2924.207    33.484951    251.97252 
  268000    258.56636    8913.2644     2924.207    31.712851    258.56636 
  269000    274.11592    8856.3246     2924.207     30.44716    274.11592 
  270000    244.04424    11041.136     2924.207     31.07723    244.04424 
  271000    266.57597    8143.0341     2924.207    29.626106    266.57597 
  272000    242.57888    11232.848     2924.207    26.356097    242.57888 
  273000    263.70212    11225.024     2924.207    23.990447    263.70212 
  274000    255.05507    8167.4856     2924.207    20.683144    255.05507 
  275000    238.63073    14839.634     2924.207    18.455279    238.63073 
  276000     259.4996    8081.9864     2924.207    19.405398     259.4996 
  277000    250.87256    4479.4503     2924.207    23.047978    250.87256 
  278000    250.86218    14109.654     2924.207    25.869292    250.86218 
  279000    267.14709    8653.4588     2924.207    27.923431    267.14709 
  280000    259.65738    7573.2999     2924.207    28.912725    259.65738 
  281000    265.18841    12201.859     2924.207    30.339537    265.18841 
  282000     253.9134    5781.3583     2924.207    31.502798     253.9134 
  283000    242.42042    13917.754     2924.207    30.966261    242.42042 
  284000    247.28186    12120.539     2924.207    31.060764    247.28186 
  285000    268.16573    5112.0005     2924.207    29.833147    268.16573 
  286000    251.38345    14342.061     2924.207    28.525503    251.38345 
  287000    243.98618    7152.6344     2924.207     28.02612    243.98618 
  288000    266.36045    2413.9223     2924.207    24.028277    266.36045 
  289000    254.61739    15647.228     2924.207    20.443034    254.61739 
  290000    253.15241    1290.1571     2924.207    18.379369    253.15241 
  291000    249.07093    21967.913     2924.207    16.217482    249.07093 
  292000    265.40673    4109.3264     2924.207    17.469844    265.40673 
  293000     250.6783    8267.4887     2924.207    17.331001     250.6783 
  294000    260.40701    16149.704     2924.207    17.237175    260.40701 
  295000    256.62553    4706.4358     2924.207    20.317525    256.62553 
  296000    265.09847    10212.869     2924.207     26.42691    265.09847 
  297000    245.05639    12534.895     2924.207      31.6849    245.05639 
  298000    234.36293    4201.1746     2924.207    31.852992    234.36293 
  299000    254.06772    12303.111     2924.207    28.290384    254.06772 
  300000    243.10072    13754.935     2924.207    25.207934    243.10072 
  301000    248.98125    6980.0025     2924.207    25.426426    248.98125 
  302000    244.27375    10130.387     2924.207     27.17763    244.27375 
  303000    251.85677    9265.2254     2924.207    27.937389    251.85677 
  304000    270.01233    10324.151     2924.207    28.754822    270.01233 
  305000    256.04158    3308.0221     2924.207    28.863848    256.04158 
  306000    258.09793    9772.9973     2924.207    30.624811    258.09793 
  307000    251.75128    10637.578     2924.207    32.127874    251.75128 
  308000    249.73492    2193.6889     2924.207    33.635137    249.73492 
  309000    239.46901    10251.621     2924.207    33.492951    239.46901 
  310000    243.87175    9493.6565     2924.207    33.590307    243.87175 
  311000    254.94514    9768.8712     2924.207    33.253793    254.94514 
  312000    248.65773    15777.849     2924.207    29.424816    248.65773 
  313000    245.26082    7929.5744     2924.207      24.9261    245.26082 
  314000    268.54466    3804.5022     2924.207    23.378389    268.54466 
  315000    261.66619    16431.417     2924.207    26.176684    261.66619 
  316000    251.03978    5373.9513     2924.207     30.04693    251.03978 
  317000    253.36029    14221.381     2924.207    30.504341    253.36029 
  318000    240.94414    9495.8826     2924.207    27.377359    240.94414 
  319000    246.98662    5670.6114     2924.207    24.523626    246.98662 
  320000    237.35155    8449.8037     2924.207    24.234791    237.35155 
  321000     239.6056    17710.454     2924.207    27.239324     239.6056 
  322000     247.3752    2440.7068     2924.207    31.959096     247.3752 
  323000    241.61217    19084.599     2924.207    34.492001    241.61217 
  324000    241.21885    6536.9704     2924.207    32.861062    241.21885 
  325000     238.7145    14783.229     2924.207    30.083449     238.7145 
  326000    242.46554    13018.325     2924.207    29.410507    242.46554 
  327000    249.03187    338.10722     2924.207    29.325659    249.03187 
  328000    247.34474    17016.393     2924.207    28.782806    247.34474 
  329000    245.48099    9989.3131     2924.207    27.017342    245.48099 
  330000    246.47367    8198.9414     2924.207    27.020017    246.47367 
  331000    238.70677    2195.0876     2924.207     27.14813    238.70677 
  332000    261.46687    10438.927     2924.207    27.000922    261.46687 
  333000    255.39018    15351.575     2924.207    28.886421    255.39018 
  334000    251.28525    9134.8564     2924.207    31.740496    251.28525 
  335000    250.08558      6111.64     2924.207    34.546491    250.08558 
  336000     254.9743    7487.2317     2924.207    34.138712     254.9743 
  337000    253.54426    14110.594     2924.207    31.620511    253.54426 
  338000    240.17991    9730.4131     2924.207    30.460058    240.17991 
  339000    248.08781    4992.6428     2924.207    30.458566    248.08781 
  340000    266.37616    7364.7582     2924.207     31.21066    266.37616 
  341000    259.48469     8625.548     2924.207    32.988774    259.48469 
  342000    250.78363    18796.441     2924.207    33.771639    250.78363 
  343000    255.79047   -1108.0365     2924.207    31.572763    255.79047 
  344000    259.62159     4768.994     2924.207    29.135366    259.62159 
  345000    250.70537    20908.146     2924.207    28.236216    250.70537 
  346000    259.98689    -4592.951     2924.207     27.92915    259.98689 
  347000    267.28246    16840.067     2924.207    29.652524    267.28246 
  348000    254.43088    14272.999     2924.207    30.759318    254.43088 
  349000     244.2265   -4309.8024     2924.207    29.972235     244.2265 
  350000    240.30636     15511.57     2924.207    30.094912    240.30636 
  351000    247.31025    6159.5688     2924.207    31.322877    247.31025 
  352000    264.48595    7934.7376     2924.207    31.705504    264.48595 
  353000    255.03167    10231.702     2924.207    30.007788    255.03167 
  354000    233.31516    4402.7648     2924.207    27.513087    233.31516 
  355000    253.95131     12800.33     2924.207    24.950001    253.95131 
  356000    261.67837    3864.5862     2924.207    22.574106    261.67837 
  357000    258.53164    4357.7953     2924.207    21.876038    258.53164 
  358000    254.44424    11104.716     2924.207    22.935034    254.44424 
  359000    242.15484    8649.1495     2924.207    24.523546    242.15484 
  360000    251.71192    11935.624     2924.207    26.907139    251.71192 
  361000    250.27896    7056.3896     2924.207    28.323138    250.27896 
  362000    244.09636    11015.999     2924.207    27.166155    244.09636 
  363000     258.8847    12769.191     2924.207    25.343459     258.8847 
  364000    246.76622    9609.2661     2924.207    22.629677    246.76622 
  365000    234.45945      3306.66     2924.207    22.155932    234.45945 
  366000    259.99675    13840.914     2924.207    21.981901    259.99675 
  367000    249.12774    5893.5106     2924.207    24.126013    249.12774 
  368000    261.85424     5430.798     2924.207    27.088906    261.85424 
  369000    250.35045    14632.623     2924.207    30.549042    250.35045 
  370000     227.5507    8151.0614     2924.207    33.801686     227.5507 
  371000    239.78378    8282.0212     2924.207    33.020742    239.78378 
  372000    262.78107    8509.7101     2924.207    30.971115    262.78107 
  373000     251.6218    7901.6784     2924.207    28.371369     251.6218 
  374000    238.32173    5982.4283     2924.207    25.683437    238.32173 
  375000    263.96003    10357.314     2924.207    23.193174    263.96003 
  376000    255.70324    10407.659     2924.207    21.748025    255.70324 
  377000    251.33678    3285.7716     2924.207    18.476317    251.33678 
  378000    252.77878    12036.105     2924.207    18.707907    252.77878 
  379000    251.62091    9718.4497     2924.207    21.271242    251.62091 
  380000    238.21025    5948.9371     2924.207    23.285197    238.21025 
  381000    254.28828    10737.404     2924.207    23.280845    254.28828 
  382000    233.41496    6729.3431     2924.207    24.630167    233.41496 
  383000    227.16282    10849.145     2924.207    26.785857    227.16282 
  384000    248.27824    8925.3549     2924.207    29.007449    248.27824 
  385000    258.41723    7760.8045     2924.207    29.125132    258.41723 
  386000    250.23596    4469.7086     2924.207    27.989096    250.23596 
  387000      248.255    5505.8465     2924.207    28.465797      248.255 
  388000    251.97216    8987.0107     2924.207    29.669428    251.97216 
  389000    237.82561    7091.6409     2924.207    28.299218    237.82561 
  390000    259.38779    984.57821     2924.207      27.5056    259.38779 
  391000    260.03357     14700.67     2924.207    27.119694    260.03357 
  392000    248.51787    8054.9972     2924.207    25.053422    248.51787 
  393000     246.2601    7031.7638     2924.207    24.728404     246.2601 
  394000    241.20331    10291.274     2924.207    25.042701    241.20331 
  395000    245.56662    6733.5351     2924.207    27.060624    245.56662 
  396000    241.22447    6709.9651     2924.207    29.832354    241.22447 
  397000    235.53231    6369.4461     2924.207    29.282837    235.53231 
  398000    240.29019    9429.4146     2924.207    25.290274    240.29019 
  399000     242.6982    11865.923     2924.207    22.018106     242.6982 
  400000    249.56056    8035.9376     2924.207    21.392834    249.56056 
  401000    250.35685    4303.4249     2924.207    23.083406    250.35685 
  402000    251.69215    10932.399     2924.207    25.701827    251.69215 
  403000    250.38818    7820.4443     2924.207     28.33205    250.38818 
  404000    263.85287    4712.5465     2924.207    29.771728    263.85287 
  405000      248.239     10744.95     2924.207    26.762132      248.239 
  406000    243.38395      8332.17     2924.207    22.900868    243.38395 
  407000    263.50947    7885.1599     2924.207    21.230633    263.50947 
  408000    245.00959     7755.865     2924.207    22.891516    245.00959 
  409000    232.31883    11219.243     2924.207    23.840826    232.31883 
  410000    235.28187    9209.7916     2924.207    25.366831    235.28187 
  411000     239.0229    7516.5332     2924.207    28.438662     239.0229 
  412000    238.63388    7462.8847     2924.207    31.108643    238.63388 
  413000    249.86817    6527.1161     2924.207    30.919456    249.86817 
  414000    265.34914    -1592.621     2924.207    29.717129    265.34914 
  415000    249.17887    14226.183     2924.207    30.812093    249.17887 
  416000    243.24459    9228.1367     2924.207    34.309793    243.24459 
  417000    241.70772    1748.4986     2924.207    34.305951    241.70772 
  418000     241.9234    12633.551     2924.207    32.119622     241.9234 
  419000     246.2135    7352.2254     2924.207    29.469853     246.2135 
  420000    264.87074    9875.7389     2924.207    29.249176    264.87074 
  421000    264.74902    10543.439     2924.207    30.191866    264.74902 
  422000    262.95039    2935.1413     2924.207    31.469391    262.95039 
  423000    247.22571    15441.442     2924.207    32.313758    247.22571 
  424000    249.99139    7224.7858     2924.207    31.961306    249.99139 
  425000    254.36017    4005.2768     2924.207    31.548736    254.36017 
  426000    250.77949    11064.188     2924.207    32.227021    250.77949 
  427000     260.0969    7436.1856     2924.207    32.911001     260.0969 
  428000    229.29443    7464.4586     2924.207    32.466913    229.29443 
  429000    259.45213        10047     2924.207    32.227069    259.45213 
  430000    253.40871    10214.182     2924.207    32.696391    253.40871 
  431000    238.36341    6101.9796     2924.207    33.877128    238.36341 
  432000    257.66048    8100.5647     2924.207    33.165539    257.66048 
  433000    247.85538    11756.451     2924.207    31.223328    247.85538 
  434000    247.81864    4079.2564     2924.207    28.311418    247.81864 
  435000    243.42415    11106.103     2924.207    25.410195    243.42415 
  436000    243.44868    7231.3071     2924.207    23.694051    243.44868 
  437000    251.15342    2861.9744     2924.207    22.007295    251.15342 
  438000     259.2259    13143.446     2924.207    23.233995     259.2259 
  439000    249.75029    6455.7437     2924.207    24.505018    249.75029 
  440000    252.06466    5851.2039     2924.207     26.79529    252.06466 
  441000    245.48182    1218.7394     2924.207    29.719064    245.48182 
  442000     248.0153    10349.484     2924.207    32.568575     248.0153 
  443000    239.85232    7669.9526     2924.207    34.547176    239.85232 
  444000    259.67982    7038.4382     2924.207    34.238712    259.67982 
  445000    266.88342    12096.419     2924.207    30.705514    266.88342 
  446000    237.05124    929.96596     2924.207    27.679652    237.05124 
  447000     247.6914    10978.392     2924.207    25.520523     247.6914 
  448000    254.60483    9029.6014     2924.207     25.19752    254.60483 
  449000    254.96353     4169.399     2924.207    24.880386    254.96353 
  450000    248.84403    8995.4807     2924.207    24.091721    248.84403 
  451000    258.01808    11207.588     2924.207    23.952372    258.01808 
  452000    239.74321    6353.4009     2924.207    24.283682    239.74321 
  453000    266.09719    835.92972     2924.207    24.011594    266.09719 
  454000    252.85597    8336.6728     2924.207    24.171708    252.85597 
  455000    252.38082    5689.7655     2924.207    24.882702    252.38082 
  456000    235.94273    4616.5463     2924.207    25.949527    235.94273 
  457000    240.47073    12404.593     2924.207    25.928114    240.47073 
  458000    237.84272    10524.962     2924.207    27.040979    237.84272 
  459000    258.15386    3669.4595     2924.207     29.06673    258.15386 
  460000    245.50338    6097.7767     2924.207    27.588288    245.50338 
  461000    267.07758    9178.5693     2924.207    23.439242    267.07758 
  462000    237.58096    1600.9956     2924.207    21.735964    237.58096 
  463000    258.90383    10184.162     2924.207    21.730303    258.90383 
  464000    237.28894    8941.4799     2924.207    21.971199    237.28894 
  465000    257.02595    6283.6573     2924.207    20.615735    257.02595 
  466000    219.72407    5389.0403     2924.207    18.431101    219.72407 
  467000    236.52917    13652.737     2924.207    17.524208    236.52917 
  468000    249.52432    1122.6442     2924.207    16.762335    249.52432 
  469000    243.65721    8643.2925     2924.207    17.112309    243.65721 
  470000    244.50257    12047.367     2924.207    17.510057    244.50257 
  471000    251.04481    7024.2289     2924.207    19.233881    251.04481 
  472000    241.68175    1932.0246     2924.207    19.092618    241.68175 
  473000    236.97518    7272.1379     2924.207    17.787596    236.97518 
  474000     239.0765    17996.031     2924.207    16.970807     239.0765 
  475000    240.46919   -566.77871     2924.207    18.077549    240.46919 
  476000    240.44218    5342.9323     2924.207    17.958015    240.44218 
  477000    251.65811    16438.832     2924.207    18.783667    251.65811 
  478000    263.55213    7504.0759     2924.207    21.893054    263.55213 
  479000    244.55686    1027.1506     2924.207    26.015594    244.55686 
  480000    245.50441    5910.6962     2924.207    28.021648    245.50441 
  481000    238.37307    12083.136     2924.207    29.304663    238.37307 
  482000    246.70545    13190.275     2924.207    28.908245    246.70545 
  483000    229.80309    1042.4901     2924.207    28.583783    229.80309 
  484000    244.17151    3722.2486     2924.207    29.270565    244.17151 
  485000    223.08467    19902.089     2924.207    29.884127    223.08467 
  486000    238.62663    1411.3334     2924.207     31.53938    238.62663 
  487000    268.43487     2360.572     2924.207    32.078479    268.43487 
  488000    239.45144    15808.873     2924.207    30.992974    239.45144 
  489000    231.32022    1733.0462     2924.207    31.364442    231.32022 
  490000    257.45998    5155.0578     2924.207    30.471113    257.45998 
  491000    250.70175    12184.312     2924.207    29.776773    250.70175 
  492000    244.14296    7729.8486     2924.207    28.547188    244.14296 
  493000    241.51841    7395.0612     2924.207     27.52285    241.51841 
  494000     249.8943    1757.5981     2924.207    27.377377     249.8943 
  495000    259.76867    11930.174     2924.207     29.38371    259.76867 
  496000    254.78502    3290.5277     2924.207    30.312252    254.78502 
  497000    255.67529    10884.308     2924.207    29.176648    255.67529 
  498000    228.37523    13383.679     2924.207    28.038195    228.37523 
  499000    231.52627   -2978.0133     2924.207    27.080562    231.52627 
  500000    231.95325    9619.6249     2924.207    27.576719    231.95325 
  501000      239.852    12773.697     2924.207    28.672589      239.852 
  502000    257.87815    6892.0783     2924.207    30.763195    257.87815 
  503000    233.15536    5101.6904     2924.207     32.16659    233.15536 
  504000    246.62125    8731.0113     2924.207    31.568193    246.62125 
  505000    240.57485     4059.948     2924.207    31.313535    240.57485 
  506000    238.64611    7773.1149     2924.207     29.93724    238.64611 
  507000    248.36712    3691.0622     2924.207    27.506323    248.36712 
  508000    252.17162     10833.26     2924.207    26.352507    252.17162 
  509000    231.94802     10030.06     2924.207    26.023567    231.94802 
  510000    240.97422    4105.7603     2924.207    25.341069    240.97422 
  511000    250.41002    748.69074     2924.207    26.808879    250.41002 
  512000    238.56692    11190.939     2924.207    28.860284    238.56692 
  513000    250.66189    1977.1524     2924.207     28.84845    250.66189 
  514000    253.63692    7514.4233     2924.207    27.849038    253.63692 
  515000    235.81359    8910.9537     2924.207    26.881175    235.81359 
  516000     249.6514    12786.024     2924.207    25.275159     249.6514 
  517000    237.19992    1196.2994     2924.207    23.662503    237.19992 
  518000    257.94076    6902.6732     2924.207    24.154167    257.94076 
  519000    245.79048    11001.624     2924.207    25.162482    245.79048 
  520000    245.76583    792.39047     2924.207    26.046293    245.76583 
  521000    241.07797    8717.7979     2924.207    26.146067    241.07797 
  522000    249.53334    12877.936     2924.207    26.072017    249.53334 
  523000    239.14633    4359.4656     2924.207    25.463459    239.14633 
  524000    244.87586    3375.6537     2924.207    25.046978    244.87586 
  525000    235.06055     9540.163     2924.207    24.943677    235.06055 
  526000    236.83951    11995.354     2924.207     23.90577    236.83951 
  527000    248.13027    3162.1869     2924.207     24.02675    248.13027 
  528000    251.79938    5475.9571     2924.207    22.018292    251.79938 
  529000    244.60485    9310.4879     2924.207    19.443982    244.60485 
  530000    249.30271    4200.4121     2924.207    18.115988    249.30271 
  531000    254.12009    6015.2151     2924.207    15.264515    254.12009 
  532000    239.21728    11388.741     2924.207    14.003155    239.21728 
  533000    256.06223    2291.4651     2924.207    16.204534    256.06223 
  534000    230.79663     5000.385     2924.207    18.337308    230.79663 
  535000    241.96879    15761.805     2924.207    18.762696    241.96879 
  536000    241.43279    4746.5617     2924.207    22.076412    241.43279 
  537000    246.18314    2177.7326     2924.207    26.419441    246.18314 
  538000    251.18162     8846.037     2924.207    29.341033    251.18162 
  539000    256.28237    10840.278     2924.207    30.206605    256.28237 
  540000    239.79495    2721.4176     2924.207    30.165642    239.79495 
  541000     252.6612    6859.9632     2924.207    30.066025     252.6612 
  542000    248.30649     14795.62     2924.207    29.674071    248.30649 
  543000    244.08954    4900.1978     2924.207    28.832719    244.08954 
  544000    236.61202     -1554.24     2924.207    28.704766    236.61202 
  545000    245.49222    9139.1549     2924.207    27.894988    245.49222 
  546000    254.52004    11283.703     2924.207    27.054323    254.52004 
  547000    237.94238     482.8976     2924.207    28.150354    237.94238 
  548000    256.95648     4236.682     2924.207    29.292721    256.95648 
  549000      257.107    6471.4482     2924.207    30.225917      257.107 
  550000    249.25444     9715.854     2924.207     30.49927    249.25444 
  551000    242.81404    5522.4875     2924.207    29.672655    242.81404 
  552000    244.19666    4113.5491     2924.207     28.93526    244.19666 
  553000    239.50336    12273.328     2924.207    29.622701    239.50336 
  554000    257.83753    4213.5627     2924.207    30.889859    257.83753 
  555000    243.83302    3133.2346     2924.207    32.199678    243.83302 
  556000    247.95105    6196.6456     2924.207    32.022014    247.95105 
  557000    223.40045    11207.215     2924.207    30.333344    223.40045 
  558000    230.59732    801.35242     2924.207    27.360762    230.59732 
  559000     247.6852    5330.4655     2924.207    26.511421     247.6852 
  560000    246.56477    8762.5143     2924.207    27.214397    246.56477 
  561000    246.12943    7336.4701     2924.207    25.166584    246.12943 
  562000    256.50508    87.124535     2924.207    26.363671    256.50508 
  563000    257.35552    7066.9976     2924.207    27.963997    257.35552 
  564000    237.65636    9505.9827     2924.207    27.424626    237.65636 
  565000    257.03386    2123.5242     2924.207     25.73922    257.03386 
  566000    241.91353    6888.4627     2924.207    25.906884    241.91353 
  567000    235.99691    8418.8771     2924.207    27.476035    235.99691 
  568000    234.39974    9112.7439     2924.207    29.878518    234.39974 
  569000    253.95065    2617.6263     2924.207    32.495358    253.95065 
  570000    248.81322     3690.557     2924.207    33.330228    248.81322 
  571000     243.0122    6261.0163     2924.207    33.847817     243.0122 
  572000      240.467    5057.2285     2924.207    34.410612      240.467 
  573000    239.98266    6033.7439     2924.207    33.622263    239.98266 
  574000    248.98369    10979.757     2924.207    33.080698    248.98369 
  575000     247.6734     9389.958     2924.207    33.781015     247.6734 
  576000    235.68096    224.97269     2924.207    32.936633    235.68096 
  577000     252.9318    6348.9587     2924.207    31.078121     252.9318 
  578000     241.9815    13201.927     2924.207    29.890513     241.9815 
  579000    249.99993    5417.9916     2924.207    30.609106    249.99993 
  580000    261.01782   -2724.2613     2924.207    31.318784    261.01782 
  581000    251.06853     4476.046     2924.207    30.458398    251.06853 
  582000    242.07894    10276.439     2924.207    28.128235    242.07894 
  583000    241.67443    4845.1797     2924.207    27.636556    241.67443 
  584000    247.07679    4836.7153     2924.207    28.467676    247.07679 
  585000    244.44126    8954.6355     2924.207    28.860996    244.44126 
  586000    256.46886    1919.8121     2924.207     30.72685    256.46886 
  587000    256.24261    5549.9117     2924.207    32.584596    256.24261 
  588000    246.58135    5931.1155     2924.207    33.008152    246.58135 
  589000    259.61877    9911.0397     2924.207    31.888771    259.61877 
  590000    235.93874    6388.4679     2924.207    30.000659    235.93874 
  591000    240.35972    7895.9587     2924.207     29.86209    240.35972 
  592000    242.65287    4374.6648     2924.207    28.397307    242.65287 
  593000    244.76954    8866.1212     2924.207    26.323678    244.76954 
  594000    244.60005    3561.3995     2924.207    25.605607    244.60005 
  595000    238.38222     7480.583     2924.207    24.942853    238.38222 
  596000    244.94365    8368.2862     2924.207    23.613189    244.94365 
  597000    252.92392    315.35243     2924.207    24.259666    252.92392 
  598000    258.46118    6658.8841     2924.207    22.811115    258.46118 
  599000    257.44125    10902.563     2924.207    24.293241    257.44125 
  600000    247.98179    7380.6115     2924.207    24.953062    247.98179 
  601000    227.98483    4121.2341     2924.207    25.092458    227.98483 
  602000    248.88726     6087.186     2924.207    27.685217    248.88726 
  603000     253.7337    9109.4019     2924.207    29.448424     253.7337 
  604000    248.46068    4641.1099     2924.207    29.642405    248.46068 
  605000    243.46787    4978.0855     2924.207    28.022028    243.46787 
  606000    257.31238    8826.3401     2924.207    26.413775    257.31238 
  607000    263.99546    11226.178     2924.207     26.47857    263.99546 
  608000    243.76583    1995.0826     2924.207    28.684348    243.76583 
  609000    251.11541    9256.3411     2924.207     30.21407    251.11541 
  610000    247.09764    3102.1942     2924.207    31.045506    247.09764 
  611000    231.38571    7660.9161     2924.207    30.046462    231.38571 
  612000    233.56414      3680.11     2924.207    29.612029    233.56414 
  613000    244.97608    1317.1929     2924.207    28.208407    244.97608 
  614000    234.64491    11130.369     2924.207    26.580026    234.64491 
  615000    229.40156    4570.6814     2924.207    27.229736    229.40156 
  616000    249.44895    1998.6598     2924.207    29.222556    249.44895 
  617000    247.66876    12252.951     2924.207    30.273071    247.66876 
  618000    236.36548    10243.137     2924.207    28.991595    236.36548 
  619000    238.06032    2169.6552     2924.207    29.084812    238.06032 
  620000    250.92321    11861.546     2924.207    28.963537    250.92321 
  621000    241.30853    8093.0433     2924.207    27.988965    241.30853 
  622000    223.18249    3017.6433     2924.207    28.238498    223.18249 
  623000     250.7521    5990.2139     2924.207    28.604576     250.7521 
  624000    237.21959    7280.1112     2924.207    27.990431    237.21959 
  625000    263.15986    7468.7137     2924.207    26.537168    263.15986 
  626000    255.85969    1609.1739     2924.207    26.110237    255.85969 
  627000     246.6269    4429.9265     2924.207     26.18915     246.6269 
  628000    242.81969    6493.1562     2924.207    27.633972    242.81969 
  629000    254.19549    9502.0669     2924.207    28.768079    254.19549 
  630000    246.09249   -1806.5371     2924.207    29.176045    246.09249 
  631000    232.51954    9167.6915     2924.207    27.857221    232.51954 
  632000    244.93325    12196.105     2924.207    27.285891    244.93325 
  633000     235.5338    3693.3921     2924.207    26.133594     235.5338 
  634000    243.43242    5163.9111     2924.207    25.084236    243.43242 
  635000    244.57979     9213.906     2924.207    25.269057    244.57979 
  636000    249.68915    5930.3305     2924.207    26.285658    249.68915 
  637000    244.33796    2764.5559     2924.207    26.536531    244.33796 
  638000    254.59825    -907.6095     2924.207    26.625506    254.59825 
  639000    251.40672    9026.7399     2924.207    26.127849    251.40672 
  640000    243.50791    8970.4017     2924.207    25.865718    243.50791 
  641000    243.79918    7880.5568     2924.207    24.787415    243.79918 
  642000    262.57334   -6039.7572     2924.207    25.801705    262.57334 
  643000    242.39748     8365.433     2924.207    26.858959    242.39748 
  644000    239.84782    15840.922     2924.207    27.392468    239.84782 
  645000    245.56255   -2746.2102     2924.207    27.471196    245.56255 
  646000     249.6014   -1893.1133     2924.207    26.152154     249.6014 
  647000    240.23827    13562.257     2924.207    24.166112    240.23827 
  648000    237.47229    8198.2809     2924.207    25.604214    237.47229 
  649000    237.16531   -402.04328     2924.207    27.369284    237.16531 
  650000    244.21447    3987.8775     2924.207    26.824159    244.21447 
  651000    223.84312    7662.3629     2924.207    25.681259    223.84312 
  652000    242.43698    10233.581     2924.207    26.348495    242.43698 
  653000    227.37486    2809.8277     2924.207    25.747097    227.37486 
  654000    241.04123    2239.5757     2924.207    26.923607    241.04123 
  655000    254.78944    7503.8249     2924.207    28.123848    254.78944 
  656000    234.24334    8387.4359     2924.207    30.196637    234.24334 
  657000    258.20225     927.9785     2924.207    31.403554    258.20225 
  658000    256.28387    1818.7468     2924.207    32.633062    256.28387 
  659000    238.98232     7341.476     2924.207    32.312989    238.98232 
  660000    240.30857    5958.8591     2924.207    32.532315    240.30857 
  661000    260.25195     9914.898     2924.207    32.822255    260.25195 
  662000    247.31691    1887.7697     2924.207    31.064078    247.31691 
  663000    255.38218    3877.1345     2924.207    29.504165    255.38218 
  664000    249.43778    5536.9364     2924.207     29.02655    249.43778 
  665000    231.83727    10784.005     2924.207    29.225488    231.83727 
  666000    250.81189    6773.1842     2924.207    30.056696    250.81189 
  667000    250.50127    399.27318     2924.207    32.621244    250.50127 
  668000    248.64041    3103.7373     2924.207    31.873796    248.64041 
  669000    246.55425    7975.4309     2924.207    31.039234    246.55425 
  670000     254.9623    8587.2735     2924.207    31.295732     254.9623 
  671000    241.07194    8311.3993     2924.207     31.01106    241.07194 
  672000    235.86159     1565.445     2924.207    29.245781    235.86159 
  673000    247.02713    5902.7515     2924.207    27.688342    247.02713 
  674000    226.24372    14671.513     2924.207    28.070098    226.24372 
  675000    236.34391    3461.8487     2924.207    26.397903    236.34391 
  676000    251.28736   -2552.4616     2924.207      23.2152    251.28736 
  677000    249.94647    4827.2859     2924.207     20.23094    249.94647 
  678000    230.16836    10675.684     2924.207    18.623852    230.16836 
  679000    245.99509    7952.9941     2924.207    18.493091    245.99509 
  680000    244.33184   -1186.2799     2924.207    20.028541    244.33184 
  681000    241.69113    11400.805     2924.207    22.159306    241.69113 
  682000    233.96411    15910.075     2924.207    22.628716    233.96411 
  683000    238.60602   -2012.1434     2924.207    23.438678    238.60602 
  684000    234.33274    1225.3619     2924.207    24.869271    234.33274 
  685000    241.02705    14146.211     2924.207    27.112222    241.02705 
  686000    233.39594    1731.5207     2924.207    27.724461    233.39594 
  687000    250.87414   -1818.9376     2924.207    28.909733    250.87414 
  688000    266.09943    13456.772     2924.207    28.053959    266.09943 
  689000    247.74047    11831.119     2924.207    27.417921    247.74047 
  690000    231.67134   -4304.6863     2924.207    28.172648    231.67134 
  691000    246.12295    2854.0108     2924.207    29.589168    246.12295 
  692000    249.09928    11562.612     2924.207    30.858461    249.09928 
  693000    252.86535    2076.6156     2924.207    31.004329    252.86535 
  694000    246.57436    1819.9332     2924.207    31.667435    246.57436 
  695000    250.44602    7783.1634     2924.207    31.270235    250.44602 
  696000    218.51974    10158.694     2924.207    31.212447    218.51974 
  697000    230.76091    3327.1547     2924.207    31.675402    230.76091 
  698000     232.1739   -570.44208     2924.207    31.948681     232.1739 
  699000    247.29823    8746.3633     2924.207    30.777851    247.29823 
  700000    246.77354    15358.209     2924.207     30.90252    246.77354 
  701000    246.73616    1671.6048     2924.207    31.263839    246.73616 
  702000      226.542   -3401.0472     2924.207    32.686499      226.542 
  703000    240.02132    10257.799     2924.207    32.631206    240.02132 
  704000    254.92563    11473.994     2924.207    32.273739    254.92563 
  705000    234.06138    3137.5734     2924.207    32.660088    234.06138 
  706000    238.33994     6185.567     2924.207    32.131752    238.33994 
  707000    246.50237    9036.9648     2924.207    32.272702    246.50237 
  708000    251.98197    10317.815     2924.207    33.504538    251.98197 
  709000    234.85892     4298.405     2924.207    33.826357    234.85892 
  710000    240.35731    2211.2975     2924.207    33.645249    240.35731 
  711000    236.13897    8543.9947     2924.207    32.407283    236.13897 
  712000     240.3514    10856.258     2924.207     32.65058     240.3514 
  713000    235.47184    5820.2246     2924.207    33.193501    235.47184 
  714000    239.68439    952.39636     2924.207    31.469671    239.68439 
  715000    222.82387    6961.4404     2924.207    29.206577    222.82387 
  716000     231.8931    10401.821     2924.207    27.960538     231.8931 
  717000      229.717    4492.5197     2924.207    27.977527      229.717 
  718000    244.84596    7363.3005     2924.207    29.102556    244.84596 
  719000    230.64727    4336.9568     2924.207    28.948446    230.64727 
  720000    247.95131    5287.6761     2924.207    27.583711    247.95131 
  721000     251.4668    3354.3408     2924.207     27.12253     251.4668 
  722000     244.9467   -3097.0335     2924.207    28.040207     244.9467 
  723000     255.5893    13244.598     2924.207    28.428398     255.5893 
  724000     241.0263    7540.8602     2924.207    27.447646     241.0263 
  725000    233.88965    2891.3993     2924.207    26.940692    233.88965 
  726000    238.07298    6725.4847     2924.207    26.116384    238.07298 
  727000     266.3989    6608.7647     2924.207    24.670228     266.3989 
  728000    236.77531    5885.7661     2924.207    25.333083    236.77531 
  729000     265.4677    3891.1814     2924.207    27.442615     265.4677 
  730000    239.58187    4265.4666     2924.207    28.521334    239.58187 
  731000    244.84658    5050.6753     2924.207    30.227697    244.84658 
  732000    246.59191    5907.9189     2924.207    30.681101    246.59191 
  733000    254.62604    5179.4459     2924.207    29.658091    254.62604 
  734000     241.9501    5931.9158     2924.207    28.790044     241.9501 
  735000    242.09492    6848.5053     2924.207    29.285624    242.09492 
  736000     237.0749    4560.6771     2924.207    28.778119     237.0749 
  737000    251.74982    7430.0216     2924.207     27.31239    251.74982 
  738000    233.89256    8465.8501     2924.207    24.908426    233.89256 
  739000    237.18972    3983.1554     2924.207    22.978015    237.18972 
  740000    235.19193    1858.3063     2924.207    22.612426    235.19193 
  741000    235.44328    5806.0547     2924.207    24.145239    235.44328 
  742000    235.17372    8677.5951     2924.207    24.442214    235.17372 
  743000     255.0078    731.18938     2924.207     24.93696     255.0078 
  744000    240.55524    6712.6858     2924.207     25.99918    240.55524 
  745000    247.60556    8748.6614     2924.207    27.018009    247.60556 
  746000    247.96764    5168.8296     2924.207    28.411382    247.96764 
  747000    243.71681     8780.702     2924.207    30.399036    243.71681 
  748000    243.55583    6023.8443     2924.207    29.588176    243.55583 
  749000    241.72556    4187.7285     2924.207    28.543593    241.72556 
  750000    243.72384    3901.2257     2924.207    28.532215    243.72384 
  751000     237.0113    11666.924     2924.207    26.614949     237.0113 
  752000    241.78755     7015.911     2924.207    26.246328    241.78755 
  753000    235.35209    4005.5261     2924.207    27.552509    235.35209 
  754000    235.60147    8058.7504     2924.207    30.094187    235.60147 
  755000    233.10083    7344.9644     2924.207    31.384321    233.10083 
  756000    239.14486    2120.9578     2924.207    29.098602    239.14486 
  757000    233.81692    10267.368     2924.207    26.758846    233.81692 
  758000    236.61649    4972.0685     2924.207    26.506607    236.61649 
  759000    256.10445    2676.3553     2924.207    25.829885    256.10445 
  760000    242.72053    4285.4594     2924.207    25.060322    242.72053 
  761000    245.60713    4890.7255     2924.207    24.949271    245.60713 
  762000    244.16704    9585.3097     2924.207    25.618699    244.16704 
  763000    258.99514     7320.651     2924.207    27.712939    258.99514 
  764000    245.21466     3784.704     2924.207    28.826653    245.21466 
  765000    257.87252    7295.0113     2924.207     30.51306    257.87252 
  766000    242.40042    4750.2124     2924.207    31.004724    242.40042 
  767000    241.97875     6709.068     2924.207    30.285769    241.97875 
  768000    245.65816    7933.9192     2924.207    31.011576    245.65816 
  769000    248.30785    273.32338     2924.207    32.482859    248.30785 
  770000    242.63909    2091.7265     2924.207    32.554262    242.63909 
  771000    266.57648    9132.5933     2924.207    31.213458    266.57648 
  772000    251.26768    7981.0432     2924.207    30.022396    251.26768 
  773000    265.84671   -337.68652     2924.207    30.307348    265.84671 
  774000    236.48103     6217.357     2924.207     29.25206    236.48103 
  775000    255.99011    13610.658     2924.207    29.968097    255.99011 
  776000    254.46254    5242.0152     2924.207     28.46771    254.46254 
  777000    257.36216   -2330.0122     2924.207    25.586939    257.36216 
  778000    254.26641    1714.2218     2924.207    24.522672    254.26641 
  779000     245.4777     11946.41     2924.207    26.641863     245.4777 
  780000    219.30595    7968.6187     2924.207    28.290672    219.30595 
  781000    232.74565   -1539.2506     2924.207    26.754984    232.74565 
  782000    255.16107    4696.7937     2924.207    24.882145    255.16107 
  783000     234.7986    12212.722     2924.207    25.383075     234.7986 
  784000    248.53405    3955.5022     2924.207    27.150403    248.53405 
  785000    249.01922    2142.9101     2924.207    26.246386    249.01922 
  786000    227.20877    7987.7676     2924.207    24.865094    227.20877 
  787000    242.63543    9116.2913     2924.207    23.329403    242.63543 
  788000    243.86017    333.92355     2924.207    20.225439    243.86017 
  789000    230.41861    1410.5543     2924.207    16.821568    230.41861 
  790000    253.98922    11989.088     2924.207    15.191735    253.98922 
  791000    241.36963    8132.4225     2924.207    16.271932    241.36963 
  792000    217.97386   -4833.9391     2924.207    16.900503    217.97386 
  793000    242.16828    16627.432     2924.207    16.989723    242.16828 
  794000    238.78474    8993.2036     2924.207    17.635066    238.78474 
  795000    239.17727    896.75308     2924.207    18.354063    239.17727 
  796000    234.21957    74.052823     2924.207    19.946383    234.21957 
  797000    231.27318    8078.1021     2924.207    22.865654    231.27318 
  798000    241.34335    3974.5995     2924.207    24.365935    241.34335 
  799000    243.17569    6092.5167     2924.207    24.300247    243.17569 
  800000    232.54633    1698.2931     2924.207    24.139989    232.54633 
  801000    252.53205    6425.7965     2924.207    24.390063    252.53205 
  802000    252.25234    9313.2751     2924.207    24.948044    252.25234 
  803000    240.00206    9092.6324     2924.207    25.310569    240.00206 
  804000     237.7666    1529.3956     2924.207    25.959366     237.7666 
  805000    250.45062   -1488.3831     2924.207    25.547696    250.45062 
  806000    240.22297    17065.495     2924.207    24.805208    240.22297 
  807000    255.54653    2451.5226     2924.207    22.710348    255.54653 
  808000    239.50206   -4376.3597     2924.207    24.110618    239.50206 
  809000      227.809    8972.9315     2924.207    25.297775      227.809 
  810000     224.6851     13872.33     2924.207    23.201248     224.6851 
  811000    235.69013    4940.3332     2924.207    22.842934    235.69013 
  812000    245.90634    2636.0672     2924.207    22.355034    245.90634 
  813000    241.63707    5043.7797     2924.207    21.456784    241.63707 
  814000    247.80203    13066.574     2924.207    22.795021    247.80203 
  815000    253.19301   -1447.4293     2924.207     23.52443    253.19301 
  816000    254.21887    158.43192     2924.207    22.961371    254.21887 
  817000    240.03928    8476.1492     2924.207    19.718906    240.03928 
  818000    250.38889    6258.2612     2924.207    19.153297    250.38889 
  819000    246.90398   -124.47398     2924.207    19.855653    246.90398 
  820000    255.22587    1756.2584     2924.207    20.511091    255.22587 
  821000    254.24017    14600.432     2924.207    20.637585    254.24017 
  822000    268.33013    11049.316     2924.207    19.678235    268.33013 
  823000    258.82797    3995.2803     2924.207    20.343316    258.82797 
  824000    233.07439    2361.5306     2924.207    21.295826    233.07439 
  825000    237.30079    4586.6077     2924.207    21.667091    237.30079 
  826000    259.07769    4847.3258     2924.207    23.174125    259.07769 
  827000    263.39632    4960.6485     2924.207     23.95199    263.39632 
  828000    248.19801    8154.9566     2924.207    23.539728    248.19801 
  829000    241.67982    6892.3338     2924.207    24.264903    241.67982 
  830000    243.49942    4394.7678     2924.207    24.938304    243.49942 
  831000    246.95361    2078.2107     2924.207    25.099797    246.95361 
  832000    248.52617    5798.6693     2924.207    24.217564    248.52617 
  833000    222.04001    12127.227     2924.207    24.025332    222.04001 
  834000    254.07954    2088.3001     2924.207    24.592808    254.07954 
  835000    251.76875    -5191.557     2924.207    25.443268    251.76875 
  836000    262.00753    6818.3473     2924.207    24.254211    262.00753 
  837000    248.15865    13384.844     2924.207    23.008532    248.15865 
  838000    228.00347    1524.4317     2924.207    23.885468    228.00347 
  839000    249.07104   -647.44093     2924.207    22.695102    249.07104 
  840000    240.24462    11672.094     2924.207    22.407108    240.24462 
  841000    222.14187    12213.068     2924.207    23.183848    222.14187 
  842000    243.76295    2634.8096     2924.207    24.208115    243.76295 
  843000    233.84415      2367.11     2924.207    23.943418    233.84415 
  844000    232.13701    6760.8953     2924.207     23.73272    232.13701 
  845000    240.82389    5278.8241     2924.207    24.448183    240.82389 
  846000     243.2269    10153.548     2924.207    24.610098     243.2269 
  847000    249.52405     1633.021     2924.207    25.876875    249.52405 
  848000     237.1411   -405.48299     2924.207    26.238201     237.1411 
  849000    247.13637    9230.5554     2924.207     26.20777    247.13637 
  850000    234.57016     11317.22     2924.207    26.883785    234.57016 
  851000     240.2111    3760.5056     2924.207    27.057163     240.2111 
  852000      230.532    4205.2883     2924.207    26.342417      230.532 
  853000    245.63278    2101.5718     2924.207     25.85644    245.63278 
  854000    260.47772    12143.831     2924.207    25.257234    260.47772 
  855000    254.53742    5321.3479     2924.207    25.589421    254.53742 
  856000    238.47785    4378.2411     2924.207    26.361262    238.47785 
  857000    249.77226     665.6203     2924.207    27.147378    249.77226 
  858000    255.71391    10381.719     2924.207    28.364186    255.71391 
  859000    254.49951    5427.6495     2924.207    30.327689    254.49951 
  860000     249.6244    1491.8276     2924.207     30.99758     249.6244 
  861000    234.85644    2841.2151     2924.207    30.110683    234.85644 
  862000    257.80363    9206.3712     2924.207    28.818906    257.80363 
  863000    243.72609     8541.413     2924.207    28.716992    243.72609 
  864000    241.09855    4498.6662     2924.207    29.261575    241.09855 
  865000    241.28327    5807.3973     2924.207    29.344522    241.28327 
  866000    241.88918    2807.6343     2924.207    29.108327    241.88918 
  867000    231.58646    3035.1269     2924.207    29.704418    231.58646 
  868000    240.55478    7178.5714     2924.207    31.087648    240.55478 
  869000    254.84053    14397.457     2924.207    31.409613    254.84053 
  870000    236.01298   -9.3816403     2924.207    30.701263    236.01298 
  871000    239.57543     3869.661     2924.207    30.540445    239.57543 
  872000     240.6963    10474.978     2924.207    31.149499     240.6963 
  873000    247.75096    2681.8464     2924.207    30.830779    247.75096 
  874000     225.1739     2564.246     2924.207    31.601688     225.1739 
  875000    244.47315    7398.1986     2924.207    31.660869    244.47315 
  876000    238.10585    11195.556     2924.207    31.094869    238.10585 
  877000    249.14006    2283.4239     2924.207    31.251196    249.14006 
  878000    239.47145    3291.2712     2924.207    32.638258    239.47145 
  879000    239.26502    14462.775     2924.207     31.94168    239.26502 
  880000    250.62412    12056.036     2924.207    30.064357    250.62412 
  881000     253.8222    570.04821     2924.207    27.704621     253.8222 
  882000    242.62324   -989.88201     2924.207    27.471289    242.62324 
  883000    252.42575    12163.667     2924.207       26.885    252.42575 
  884000    227.04215   -472.27434     2924.207    25.792212    227.04215 
  885000    228.01146   -1067.0003     2924.207     26.39038    228.01146 
  886000    234.84296     5900.672     2924.207    27.254034    234.84296 
  887000    252.45667    13798.711     2924.207    28.755595    252.45667 
  888000    234.17243    6664.5194     2924.207    28.230139    234.17243 
  889000    235.52056   -5006.8626     2924.207    26.749662    235.52056 
  890000    244.62966    7082.4221     2924.207    27.186562    244.62966 
  891000    242.19892    18144.139     2924.207    27.714478    242.19892 
  892000    263.77782    -2100.854     2924.207    27.664071    263.77782 
  893000    264.49739   -2927.8704     2924.207    26.773584    264.49739 
  894000     245.3776    10580.988     2924.207     26.82666     245.3776 
  895000    248.35826    12356.831     2924.207    27.852295    248.35826 
  896000    245.35564    1327.6232     2924.207    28.123175    245.35564 
  897000    240.74051   -99.404817     2924.207    25.553108    240.74051 
  898000    232.50811    6564.6225     2924.207    26.484647    232.50811 
  899000     236.8714    9483.2895     2924.207    26.756628     236.8714 
  900000    244.27321   -1193.5319     2924.207    26.301427    244.27321 
  901000    234.24174   -4092.5136     2924.207    27.131266    234.24174 
  902000    248.74807    10318.573     2924.207    26.608569    248.74807 
  903000    254.32394    12024.705     2924.207    26.980867    254.32394 
  904000    245.93514    779.47654     2924.207    27.071542    245.93514 
  905000    253.05737   -7762.1915     2924.207    27.174648    253.05737 
  906000    250.78231    12011.467     2924.207    27.167934    250.78231 
  907000    241.38966    15994.949     2924.207    26.020832    241.38966 
  908000    242.51976    -2341.008     2924.207    26.143272    242.51976 
  909000    221.28809    -6592.117     2924.207    27.928376    221.28809 
  910000    250.98069     8572.986     2924.207    27.170221    250.98069 
  911000    237.36436    16154.157     2924.207    26.379907    237.36436 
  912000     256.5226    2274.8109     2924.207    26.045177     256.5226 
  913000    237.80882    185.38897     2924.207    26.243941    237.80882 
  914000    246.55193    10956.543     2924.207    26.434189    246.55193 
  915000    254.62488    10166.422     2924.207    27.028336    254.62488 
  916000    234.93205    1926.9044     2924.207    27.438858    234.93205 
  917000    252.97547    4635.5394     2924.207     24.91273    252.97547 
  918000    252.27792    6924.2179     2924.207    23.325344    252.27792 
  919000    238.99152    6500.6203     2924.207    21.431018    238.99152 
  920000    254.53744    6606.9849     2924.207    20.781437    254.53744 
  921000    241.18689    4498.2364     2924.207    20.840624    241.18689 
  922000    247.86103    10505.094     2924.207    21.399636    247.86103 
  923000    233.92705    9847.3894     2924.207     21.93532    233.92705 
  924000    231.94539    4509.1531     2924.207    21.663289    231.94539 
  925000    225.47256   -119.84867     2924.207    20.692831    225.47256 
  926000    240.99693    8742.8459     2924.207    20.467523    240.99693 
  927000    237.69345    9433.9426     2924.207    22.262265    237.69345 
  928000    250.80234    3235.2243     2924.207    23.845633    250.80234 
  929000    244.30744    2317.2164     2924.207    24.771685    244.30744 
  930000    240.50274    8591.5208     2924.207    26.080261    240.50274 
  931000    246.16326    6304.8147     2924.207    25.843251    246.16326 
  932000    240.69411    1335.1954     2924.207    24.507218    240.69411 
  933000    245.97753    4425.8514     2924.207    23.378995    245.97753 
  934000    231.15191    6745.9906     2924.207    22.155454    231.15191 
  935000    226.98649    6345.7408     2924.207    22.028677    226.98649 
  936000    223.20803    4272.2245     2924.207    20.770643    223.20803 
  937000    234.72675    3463.1053     2924.207    19.976762    234.72675 
  938000    228.57692    7953.5005     2924.207    20.893339    228.57692 
  939000    241.74238    7323.8251     2924.207    22.784401    241.74238 
  940000    248.41412    620.28144     2924.207    21.750851    248.41412 
  941000    247.86912    3690.7139     2924.207     20.84206    247.86912 
  942000    230.80066    4840.4239     2924.207    22.922669    230.80066 
  943000    239.64197    12229.281     2924.207    22.814372    239.64197 
  944000     249.9906    5272.2018     2924.207    22.058106     249.9906 
  945000     242.0418   -1768.9884     2924.207    20.002823     242.0418 
  946000    250.42611    8066.5617     2924.207    19.771256    250.42611 
  947000    223.00648    10747.386     2924.207    22.258926    223.00648 
  948000     248.7228   -629.85492     2924.207     23.90578     248.7228 
  949000    254.09633   -3000.6727     2924.207    21.918112    254.09633 
  950000    247.47954    9970.7863     2924.207    19.882018    247.47954 
  951000    251.36733    11393.673     2924.207    19.610953    251.36733 
  952000    253.01796    1236.2489     2924.207    19.118129    253.01796 
  953000    267.73869    1934.2014     2924.207    20.253725    267.73869 
  954000    251.52848    5524.6524     2924.207    19.747489    251.52848 
  955000    231.90977    6933.9441     2924.207    20.421243    231.90977 
  956000    234.68047    3008.3732     2924.207    21.878003    234.68047 
  957000    243.45878    7226.4293     2924.207     19.99901    243.45878 
  958000    249.74369    4063.8189     2924.207    20.244136    249.74369 
  959000    235.56219    1820.4024     2924.207    20.364591    235.56219 
  960000    250.22012    7263.6453     2924.207    19.533553    250.22012 
  961000    257.94192    6885.4038     2924.207    19.357561    257.94192 
  962000    244.02284    8814.6037     2924.207     18.98666    244.02284 
  963000    242.24664    886.56222     2924.207    17.897409    242.24664 
  964000    226.16682    7471.0798     2924.207    19.315013    226.16682 
  965000    228.20994    4056.0787     2924.207    20.017697    228.20994 
  966000    232.46536    3914.5884     2924.207     20.04693    232.46536 
  967000    245.27705    11268.543     2924.207    20.265638    245.27705 
  968000    240.35577    5248.7482     2924.207    20.313379    240.35577 
  969000    247.94564    1861.2008     2924.207    19.968335    247.94564 
  970000    256.87286    3205.4764     2924.207    18.872597    256.87286 
  971000    245.83422    11870.844     2924.207    18.566734    245.83422 
  972000    239.61485    8108.8884     2924.207    18.879719    239.61485 
  973000    243.09615    555.72378     2924.207    19.095748    243.09615 
  974000    243.74317    5007.8598     2924.207    18.650814    243.74317 
  975000    247.61081    5586.4498     2924.207    16.877018    247.61081 
  976000     238.7776    6351.0753     2924.207    19.217465     238.7776 
  977000    239.76389    6341.1383     2924.207    19.594058    239.76389 
  978000    249.76209    1296.6474     2924.207    19.822871    249.76209 
  979000    247.37688    7674.4665     2924.207    18.530652    247.37688 
  980000    229.42806    7419.5691     2924.207    16.900817    229.42806 
  981000    245.44897    6770.4167     2924.207    17.741986    245.44897 
  982000    237.35239     7009.002     2924.207    18.351505    237.35239 
  983000    225.78926    4276.3388     2924.207    18.122397    225.78926 
  984000    225.95552    3336.0959     2924.207    18.199644    225.95552 
  985000    250.31397    417.92191     2924.207    19.036953    250.31397 
  986000    257.10222    7753.8275     2924.207    19.497362    257.10222 
  987000     246.5278    8608.2029     2924.207    19.809548     246.5278 
  988000     244.3527     4041.552     2924.207    20.385404     244.3527 
  989000    237.14282    4487.4956     2924.207    21.592313    237.14282 
  990000     229.5554    9913.1535     2924.207    22.826621     229.5554 
  991000    263.66849    8957.7313     2924.207    25.108798    263.66849 
  992000    247.57827    -3290.432     2924.207    25.738495    247.57827 
  993000    253.33147     1583.279     2924.207    25.868877    253.33147 
  994000    233.30522    11469.369     2924.207    25.768758    233.30522 
  995000    241.69637    8877.6913     2924.207    24.873239    241.69637 
  996000    230.06631   -4912.0812     2924.207    24.092478    230.06631 
  997000    253.01898    2080.0819     2924.207    22.464199    253.01898 
  998000    256.81015    13321.406     2924.207    21.190448    256.81015 
  999000     244.5917    4215.0627     2924.207    21.672391     244.5917 
 1000000    239.42492   -1878.1686     2924.207    21.738619    239.42492 
Loop time of 17293.8 on 1 procs for 1000000 steps with 240 atoms

Pair  time (%) = 17180.2 (99.3429)
Bond  time (%) = 0.192879 (0.00111531)
Neigh time (%) = 41.5451 (0.240231)
Comm  time (%) = 47.0991 (0.272346)
Outpt time (%) = 0.0562797 (0.000325432)
Other time (%) = 24.7409 (0.143062)

Nlocal:    240 ave 240 max 240 min
Histogram: 1 0 0 0 0 0 0 0 0 0
Nghost:    6057 ave 6057 max 6057 min
Histogram: 1 0 0 0 0 0 0 0 0 0
Neighs:    91166 ave 91166 max 91166 min
Histogram: 1 0 0 0 0 0 0 0 0 0
FullNghs:  182332 ave 182332 max 182332 min
Histogram: 1 0 0 0 0 0 0 0 0 0

Total # of neighbors = 182332
Ave neighs/atom = 759.717
Ave special neighs/atom = 0
Neighbor list builds = 3783
Dangerous builds = 0
#	run			10000
	unfix			1
	uncompute		myDis
	uncompute		keSource
	uncompute		keSource2
	uncompute		keSink
	uncompute		keSink2


#	next seed
#	next iseed
#jump lmp.in.gk loop_seed
