
#--------------------------------------------------------------------------
#nve rescale
#--------------------------------------------------------------------------
	velocity 		all create ${T_run} ${seed} rot yes dist gaussian
	velocity 		all create 300 ${seed} rot yes dist gaussian
	velocity 		all create 300 66666 rot yes dist gaussian

	fix 			1 all nve
	fix 			2 all temp/rescale 1 ${T_run} ${T_run} 0.01 1.0
	fix 			2 all temp/rescale 1 300 ${T_run} 0.01 1.0
	fix 			2 all temp/rescale 1 300 300 0.01 1.0
	timestep		${dt}
	timestep		0.001
	thermo_style  		custom step temp press etotal vol
	thermo			1000
	run             	100000	
Memory usage per processor = 3.77135 Mbytes
Step Temp Press TotEng Volume 
       0          300    175110.51    -12580.78        24389 
    1000          300    13403.425    -12772.93        24389 
    2000    299.99632    28020.062    -12788.43        24389 
    3000          300    16957.097   -12780.536        24389 
    4000          300    890.86763   -12782.442        24389 
    5000          300   -7182.1874   -12779.811        24389 
    6000          300    3967.7826   -12784.727        24389 
    7000          300    11892.638   -12784.434        24389 
    8000          300    9338.6723   -12783.149        24389 
    9000          300   -306.49675   -12784.054        24389 
   10000          300    1866.3653   -12783.516        24389 
   11000          300    7008.4706   -12782.751        24389 
   12000          300     4934.903   -12783.302        24389 
   13000          300    4930.3527   -12784.379        24389 
   14000          300    4695.0989   -12782.649        24389 
   15000          300    3926.6252   -12785.031        24389 
   16000          300    5134.3618    -12783.22        24389 
   17000          300    5818.1303   -12782.076        24389 
   18000          300    6092.5375   -12781.891        24389 
   19000          300    5215.9082   -12782.814        24389 
   20000          300    3207.0483    -12782.28        24389 
   21000          300    4565.1835   -12783.383        24389 
   22000          300    8593.0937   -12783.285        24389 
   23000          300    4543.8584   -12783.184        24389 
   24000          300    5100.5379   -12784.631        24389 
   25000          300    1058.9331   -12783.742        24389 
   26000          300    2366.9346   -12782.986        24389 
   27000          300    6647.3132   -12781.758        24389 
   28000          300    7669.5163   -12782.357        24389 
   29000          300    6060.6601   -12783.762        24389 
   30000          300    1624.9381   -12786.434        24389 
   31000          300    5199.6055   -12782.385        24389 
   32000          300    6660.3016   -12784.469        24389 
   33000          300    7136.7145   -12782.551        24389 
   34000          300    4461.7576   -12783.878        24389 
   35000          300    3969.3592    -12784.05        24389 
   36000          300    5241.9591    -12782.93        24389 
   37000          300     4064.226   -12783.261        24389 
   38000          300    4782.6714     -12783.3        24389 
   39000          300    5109.6234   -12784.941        24389 
   40000          300    6806.0665   -12782.031        24389 
   41000          300    4823.7207    -12782.25        24389 
   42000          300    3524.7813   -12781.309        24389 
   43000          300     4504.355   -12784.673        24389 
   44000          300    6432.0725   -12785.157        24389 
   45000          300    5743.9583   -12784.828        24389 
   46000          300    4104.4465    -12781.27        24389 
   47000          300    3447.8865   -12784.542        24389 
   48000          300    6216.2835   -12784.421        24389 
   49000          300    4639.3136   -12783.917        24389 
   50000          300      4788.88   -12782.933        24389 
   51000          300    5005.3245   -12783.238        24389 
   52000          300    6606.1332   -12784.046        24389 
   53000          300    4935.7993   -12783.982        24389 
   54000          300    5539.7853   -12782.104        24389 
   55000          300    3795.7289   -12784.682        24389 
   56000          300    2073.7662   -12787.114        24389 
   57000          300    3929.3054    -12783.68        24389 
   58000          300    6578.7645   -12783.779        24389 
   59000          300    5999.2901   -12784.652        24389 
   60000          300    3783.5253   -12784.199        24389 
   61000          300    3835.5827   -12785.573        24389 
   62000          300    4056.5629   -12785.017        24389 
   63000          300    3534.9386   -12786.016        24389 
   64000          300    5497.7568   -12785.335        24389 
   65000          300    7340.5854   -12786.097        24389 
   66000          300     5018.999   -12783.131        24389 
   67000          300    1528.4617   -12783.964        24389 
   68000          300    5363.2275   -12786.227        24389 
   69000          300      9557.44   -12782.852        24389 
   70000          300    5435.5498   -12785.117        24389 
   71000          300     4695.262   -12783.089        24389 
   72000          300    4215.1522   -12782.523        24389 
   73000          300    6073.0856   -12784.589        24389 
   74000          300     8617.722   -12783.064        24389 
   75000          300    4914.0388   -12784.605        24389 
   76000          300    3592.5862   -12783.732        24389 
   77000          300    7343.9092   -12784.633        24389 
   78000          300    3981.9869   -12785.549        24389 
   79000          300    5215.2082   -12783.639        24389 
   80000          300    4670.6516   -12783.688        24389 
   81000          300    7192.0802   -12784.741        24389 
   82000          300    4956.5769   -12784.186        24389 
   83000          300     4259.533   -12784.773        24389 
   84000          300    6269.6669   -12786.385        24389 
   85000          300     5061.422   -12784.711        24389 
   86000          300    4983.3434   -12788.134        24389 
   87000          300    8549.8589   -12786.559        24389 
   88000          300    6024.0822   -12786.241        24389 
   89000          300    1730.9415   -12784.373        24389 
   90000          300    4818.2523   -12785.572        24389 
   91000          300    5906.3682   -12786.439        24389 
   92000          300    2623.0968   -12784.256        24389 
   93000          300    7777.4922    -12784.75        24389 
   94000          300    5724.2568   -12784.128        24389 
   95000          300     4222.453   -12784.166        24389 
   96000          300    4820.1365   -12787.096        24389 
   97000          300    7614.9228   -12786.974        24389 
   98000          300    5656.4995   -12785.967        24389 
   99000          300    3068.4391   -12786.667        24389 
  100000          300    6289.2026    -12785.08        24389 
Loop time of 2041.01 on 16 procs for 100000 steps with 1920 atoms

Pair  time (%) = 1833.96 (89.8553)
Bond  time (%) = 0.0436281 (0.00213757)
Neigh time (%) = 4.65836 (0.228238)
Comm  time (%) = 194.657 (9.53727)
Outpt time (%) = 0.00861269 (0.000421981)
Other time (%) = 7.68646 (0.3766)

Nlocal:    120 ave 129 max 114 min
Histogram: 3 1 5 0 1 1 1 2 1 1
Nghost:    4899.12 ave 4973 max 4823 min
Histogram: 1 2 3 2 0 1 1 2 1 3
Neighs:    51763.8 ave 56184 max 48348 min
Histogram: 1 3 2 3 1 1 1 3 0 1
FullNghs: 103528 ave 111939 max 97233 min
Histogram: 2 2 3 2 1 0 2 3 0 1

Total # of neighbors = 1656442
Ave neighs/atom = 862.73
Ave special neighs/atom = 0
Neighbor list builds = 556
Dangerous builds = 0
#	run             	1000
	unfix 			1
	unfix 			2
#--------------------------------------------------------------------------
#nve
#--------------------------------------------------------------------------
	fix 			1 all nve
	timestep		${dt}
	timestep		0.001
	thermo_style  		custom step temp press etotal vol
	thermo			1000
	run             	100000	
Memory usage per processor = 3.77517 Mbytes
Step Temp Press TotEng Volume 
  100000          300    6289.2026    -12785.08        24389 
  101000    298.93634    6210.5772   -12785.086        24389 
  102000    303.50571    5353.2567   -12785.103        24389 
  103000    304.01739     4185.549   -12785.093        24389 
  104000    300.76501    6303.8873   -12785.101        24389 
  105000    299.99032    7596.3123    -12785.09        24389 
  106000    295.17702    5050.0149   -12785.052        24389 
  107000    299.46797    4713.7414   -12785.072        24389 
  108000     306.7377    6701.1145   -12785.109        24389 
  109000    300.16936     5789.758   -12785.094        24389 
  110000    301.56115     6337.091   -12785.094        24389 
  111000    299.53419     4852.674    -12785.09        24389 
  112000    308.24285    6960.3688   -12785.123        24389 
  113000     302.5636    5689.0861   -12785.113        24389 
  114000    297.10465    4338.8396   -12785.094        24389 
  115000     304.6314    7062.0717   -12785.119        24389 
  116000    302.62934    6584.1669   -12785.104        24389 
  117000     292.0116    4348.1231   -12785.071        24389 
  118000    300.35901    5075.3274   -12785.056        24389 
  119000    302.59246    3390.5875     -12785.1        24389 
  120000    300.65249    7311.0641     -12785.1        24389 
  121000    299.68546    6492.8923   -12785.083        24389 
  122000    292.43859    3319.2286   -12785.065        24389 
  123000     295.4599    4468.4216   -12785.057        24389 
  124000    296.26268    6168.2668   -12785.078        24389 
  125000    296.92447    6446.7599    -12785.07        24389 
  126000    299.70643    5166.7672   -12785.088        24389 
  127000    306.81189    3045.8066   -12785.108        24389 
  128000    302.16765    6556.2731     -12785.1        24389 
  129000    303.90839    7033.3566    -12785.12        24389 
  130000    300.44093    4709.4707   -12785.068        24389 
  131000    293.77266    4088.3773   -12785.052        24389 
  132000    301.24657    4169.2773   -12785.079        24389 
  133000    293.40271    5910.3343   -12785.057        24389 
  134000    297.97994    8788.0188   -12785.081        24389 
  135000    304.45777    4450.9393    -12785.11        24389 
  136000    299.17194    4564.2083   -12785.092        24389 
  137000    305.53178    5626.0691     -12785.1        24389 
  138000    302.10359    4835.9423    -12785.09        24389 
  139000    295.78297    8039.7455   -12785.066        24389 
  140000     302.7508    7592.7689   -12785.077        24389 
  141000    302.91408    4742.2124     -12785.1        24389 
  142000    302.65144    3135.7515   -12785.063        24389 
  143000    298.52966    5103.3838    -12785.09        24389 
  144000    298.16762    8483.3193    -12785.09        24389 
  145000    296.26869    6487.1101   -12785.066        24389 
  146000    304.41657    4209.1058   -12785.087        24389 
  147000    300.09028    6956.3212   -12785.097        24389 
  148000    301.88965    6068.6422   -12785.094        24389 
  149000      299.277    3808.4777   -12785.097        24389 
  150000    297.08431    3177.7913    -12785.07        24389 
  151000    302.63303    6560.9365   -12785.091        24389 
  152000    300.19487    6045.6531   -12785.076        24389 
  153000    298.33174    5995.4304   -12785.059        24389 
  154000    296.79792    5758.1131   -12785.073        24389 
  155000    309.81768    3919.5219   -12785.094        24389 
  156000    305.94376    5701.6844   -12785.091        24389 
  157000    294.69196    6825.4571   -12785.056        24389 
  158000     300.3129    7054.3511   -12785.081        24389 
  159000    296.88067    5322.8453    -12785.07        24389 
  160000    291.98847    4620.7175   -12785.031        24389 
  161000    301.78759    6169.4613   -12785.088        24389 
  162000    297.55513    9523.2126   -12785.085        24389 
  163000    305.91916    4399.8371     -12785.1        24389 
  164000    294.27458    3696.6433   -12785.057        24389 
  165000    299.45008    5691.1749   -12785.104        24389 
  166000    295.24652    5837.1271   -12785.085        24389 
  167000    295.45281    3096.2701   -12785.071        24389 
  168000    298.33324    7780.1202   -12785.082        24389 
  169000    300.72895    5566.6205    -12785.06        24389 
  170000    299.73699    3804.9262   -12785.087        24389 
  171000    297.65882    8687.3312   -12785.087        24389 
  172000    295.96694     5036.776   -12785.073        24389 
  173000    300.74351    6187.1148   -12785.093        24389 
  174000    296.21843    6210.8249   -12785.059        24389 
  175000    298.15496    4702.3856   -12785.098        24389 
  176000    296.95658     4695.716   -12785.076        24389 
  177000    298.09704    5426.4484   -12785.096        24389 
  178000     300.8635    5985.4958   -12785.109        24389 
  179000     305.4572    4932.9344   -12785.102        24389 
  180000     298.6233    5339.5779   -12785.106        24389 
  181000    293.84784    6428.4879    -12785.05        24389 
  182000    304.10061    4659.7406   -12785.102        24389 
  183000    298.56023    5239.6794   -12785.065        24389 
  184000    300.71632    5209.3681   -12785.079        24389 
  185000    297.37334    5038.5317   -12785.086        24389 
  186000    298.34531    5525.7526   -12785.088        24389 
  187000     304.3212    4010.2564   -12785.093        24389 
  188000    296.68833     5547.786   -12785.076        24389 
  189000    299.85333    5460.3589   -12785.105        24389 
  190000    299.23101    5621.1039    -12785.11        24389 
  191000    295.84817    6483.1336   -12785.115        24389 
  192000    295.72159    6948.1076   -12785.101        24389 
  193000    299.87242    2922.2337   -12785.086        24389 
  194000    292.67193    5725.2049   -12785.064        24389 
  195000    298.28713    5869.2374   -12785.092        24389 
  196000    299.09916    6093.6199   -12785.102        24389 
  197000    295.24922    5255.5601   -12785.065        24389 
  198000    296.73316    6422.1611   -12785.061        24389 
  199000     300.6732    5599.5446   -12785.068        24389 
  200000    298.81363    3846.9855   -12785.086        24389 
Loop time of 2041.3 on 16 procs for 100000 steps with 1920 atoms

Pair  time (%) = 1834.74 (89.8807)
Bond  time (%) = 0.0429322 (0.00210318)
Neigh time (%) = 5.20731 (0.255097)
Comm  time (%) = 195.456 (9.57508)
Outpt time (%) = 0.00974371 (0.000477328)
Other time (%) = 5.8489 (0.286528)

Nlocal:    120 ave 127 max 114 min
Histogram: 1 1 2 4 1 2 2 1 1 1
Nghost:    4887.94 ave 4925 max 4837 min
Histogram: 2 0 2 1 1 1 2 4 0 3
Neighs:    51753.1 ave 55200 max 48812 min
Histogram: 1 0 2 3 4 2 2 0 1 1
FullNghs: 103506 ave 109929 max 97517 min
Histogram: 1 0 2 3 3 3 1 1 0 2

Total # of neighbors = 1656098
Ave neighs/atom = 862.551
Ave special neighs/atom = 0
Neighbor list builds = 621
Dangerous builds = 0
#	run             	10000
	unfix 			1
#--------------------------------------------------------------------------
#kappa
#--------------------------------------------------------------------------
log 	log_kappa_${iseed}.lammps
log 	log_kappa_6.lammps
