
#--------------------------------------------------------------------------
#nve rescale
#--------------------------------------------------------------------------
	velocity 		all create ${T_run} ${seed} rot yes dist gaussian
	velocity 		all create 300 ${seed} rot yes dist gaussian
	velocity 		all create 300 22222 rot yes dist gaussian

	fix 			1 all nve
	fix 			2 all temp/rescale 1 ${T_run} ${T_run} 0.01 1.0
	fix 			2 all temp/rescale 1 300 ${T_run} 0.01 1.0
	fix 			2 all temp/rescale 1 300 300 0.01 1.0
	timestep		${dt}
	timestep		0.001
	thermo_style  		custom step temp press etotal vol
	thermo			1000
	run             	100000	
Memory usage per processor = 3.77135 Mbytes
Step Temp Press TotEng Volume 
       0          300    175110.51    -12580.78        24389 
    1000          300    9531.1581   -12770.307        24389 
    2000          300    23750.084   -12785.153        24389 
    3000          300    16087.214   -12782.259        24389 
    4000          300    391.62625   -12783.054        24389 
    5000          300   -3676.7041   -12783.245        24389 
    6000          300    4726.0539   -12782.341        24389 
    7000          300    11470.894   -12783.817        24389 
    8000          300    8396.7538    -12781.21        24389 
    9000          300   -1405.3083   -12782.054        24389 
   10000          300   -1625.7471   -12783.813        24389 
   11000          300     6156.028   -12782.118        24389 
   12000          300    8805.7684   -12781.023        24389 
   13000          300    5796.9464   -12783.338        24389 
   14000          300    2423.8788   -12783.802        24389 
   15000          300    3854.6769    -12782.85        24389 
   16000          300    5083.4904   -12783.912        24389 
   17000          300    5964.2923   -12783.345        24389 
   18000          300    2577.5381   -12782.132        24389 
   19000          300    4483.3382   -12783.654        24389 
   20000          300    3749.4394   -12784.693        24389 
   21000          300    5779.4651   -12783.495        24389 
   22000          300    4753.5159   -12782.191        24389 
   23000          300    3048.5724   -12782.953        24389 
   24000          300    91.285693   -12784.229        24389 
   25000          300    6670.7466   -12782.391        24389 
   26000          300    8850.2368   -12784.523        24389 
   27000          300    5921.1533   -12782.652        24389 
   28000          300    2169.6688   -12782.768        24389 
   29000          300    2426.4697   -12783.772        24389 
   30000          300    7161.7388    -12785.44        24389 
   31000          300    5262.9617   -12782.702        24389 
   32000          300     1436.054    -12782.94        24389 
   33000          300     3779.497   -12783.716        24389 
   34000          300    5898.6667   -12784.694        24389 
   35000          300     3852.398   -12785.198        24389 
   36000          300    2380.7984   -12784.074        24389 
   37000          300    4375.0116   -12783.974        24389 
   38000          300    2765.9412   -12784.065        24389 
   39000          300    4753.0092   -12784.623        24389 
   40000          300    4785.1333   -12782.955        24389 
   41000          300    2904.1313   -12785.884        24389 
   42000          300    4667.2056    -12785.31        24389 
   43000          300      4618.46    -12785.12        24389 
   44000          300    3001.6343   -12782.327        24389 
   45000          300    2235.8635   -12783.455        24389 
   46000          300    6482.7736    -12785.89        24389 
   47000          300    7326.4063   -12785.033        24389 
   48000          300    5019.0244   -12785.365        24389 
   49000          300     5392.375   -12782.843        24389 
   50000          300     3287.602   -12785.669        24389 
   51000          300    978.45489    -12783.61        24389 
   52000          300    3726.8536   -12784.133        24389 
   53000          300    7356.9112   -12787.347        24389 
   54000          300    7290.2455   -12784.552        24389 
   55000          300    4235.8049   -12783.718        24389 
   56000          300    1997.2564   -12782.225        24389 
   57000          300    5057.5231   -12785.673        24389 
   58000          300    7921.0697   -12783.751        24389 
   59000          300    8091.7392   -12782.416        24389 
   60000          300    4265.8186    -12783.27        24389 
   61000          300      1994.07   -12785.105        24389 
   62000          300    2128.6446   -12786.152        24389 
   63000          300    6470.2401   -12782.631        24389 
   64000          300    5402.9154   -12783.605        24389 
   65000          300    3880.8478   -12785.403        24389 
   66000          300    6534.0495   -12784.151        24389 
   67000          300    4854.1427     -12784.9        24389 
   68000          300    3258.0038   -12783.968        24389 
   69000          300    3854.5982    -12783.58        24389 
   70000          300    7616.5326   -12783.483        24389 
   71000          300    3332.5138   -12783.375        24389 
   72000          300    6301.4521   -12785.438        24389 
   73000          300     5689.041   -12783.542        24389 
   74000          300    5534.8949    -12784.16        24389 
   75000          300    6106.4393   -12783.417        24389 
   76000          300    5677.9295   -12786.661        24389 
   77000          300     4172.456   -12784.456        24389 
   78000          300    2318.9854   -12785.456        24389 
   79000          300    4884.9232    -12786.26        24389 
   80000          300    6165.3636   -12784.326        24389 
   81000          300    3527.2317   -12787.357        24389 
   82000          300    5408.5738   -12785.894        24389 
   83000          300    5217.0931   -12785.476        24389 
   84000          300    5667.7947    -12785.23        24389 
   85000          300    4625.2943   -12784.381        24389 
   86000          300    5723.7876   -12782.837        24389 
   87000          300    7609.6799   -12784.447        24389 
   88000          300    7424.8103    -12785.05        24389 
   89000          300    2915.5806   -12782.981        24389 
   90000          300    5935.1164   -12785.251        24389 
   91000          300    6685.7647   -12784.522        24389 
   92000          300    5541.1418   -12785.391        24389 
   93000          300    4253.0531   -12786.679        24389 
   94000          300    5766.9826   -12784.551        24389 
   95000          300    7236.7652   -12784.381        24389 
   96000          300      4814.13   -12786.227        24389 
   97000          300     4358.184   -12787.037        24389 
   98000          300    5309.9137    -12787.39        24389 
   99000          300    6276.2622   -12785.909        24389 
  100000          300    5705.6445   -12784.905        24389 
Loop time of 2032.39 on 16 procs for 100000 steps with 1920 atoms

Pair  time (%) = 1832.12 (90.146)
Bond  time (%) = 0.0427483 (0.00210335)
Neigh time (%) = 4.646 (0.228598)
Comm  time (%) = 188.484 (9.27402)
Outpt time (%) = 0.00816542 (0.000401764)
Other time (%) = 7.09064 (0.348882)

Nlocal:    120 ave 126 max 112 min
Histogram: 2 0 1 1 3 1 0 4 2 2
Nghost:    4892.81 ave 4936 max 4859 min
Histogram: 3 1 0 3 1 4 2 1 0 1
Neighs:    51747 ave 55125 max 48007 min
Histogram: 1 2 0 2 3 0 3 3 0 2
FullNghs: 103494 ave 108955 max 95873 min
Histogram: 1 1 1 1 3 1 0 4 2 2

Total # of neighbors = 1655904
Ave neighs/atom = 862.45
Ave special neighs/atom = 0
Neighbor list builds = 556
Dangerous builds = 0
#	run             	1000
	unfix 			1
	unfix 			2
#--------------------------------------------------------------------------
#nve
#--------------------------------------------------------------------------
	fix 			1 all nve
	timestep		${dt}
	timestep		0.001
	thermo_style  		custom step temp press etotal vol
	thermo			1000
	run             	100000	
Memory usage per processor = 3.77517 Mbytes
Step Temp Press TotEng Volume 
  100000          300    5705.6445   -12784.905        24389 
  101000    293.70974    5427.4683   -12784.903        24389 
  102000    303.43497     6466.472   -12784.913        24389 
  103000    295.93926    7705.6608   -12784.893        24389 
  104000    304.29303    2885.1989    -12784.91        24389 
  105000    300.65654    6008.1139    -12784.93        24389 
  106000    304.34985    4919.7499   -12784.955        24389 
  107000    302.87885     5584.002    -12784.93        24389 
  108000    304.17719    5396.2275    -12784.91        24389 
  109000    299.64194    3045.0706    -12784.93        24389 
  110000    299.53974    5332.3501   -12784.907        24389 
  111000    291.81437     7307.797   -12784.898        24389 
  112000     309.0856    6852.3838   -12784.926        24389 
  113000    304.57555    2253.9107   -12784.929        24389 
  114000    293.61986    5030.2846   -12784.881        24389 
  115000    298.07001    11248.954   -12784.915        24389 
  116000     295.8629    5388.8109   -12784.909        24389 
  117000     295.5149    2907.3738   -12784.908        24389 
  118000    296.13316    7252.7027   -12784.905        24389 
  119000    302.47755    3873.5649   -12784.908        24389 
  120000    298.09949    3619.2157   -12784.918        24389 
  121000    296.54005     5443.944   -12784.912        24389 
  122000    302.64058    7269.2961   -12784.934        24389 
  123000    305.84689    3994.8936   -12784.928        24389 
  124000    302.98024    5924.7131   -12784.915        24389 
  125000    301.22741    5591.0702   -12784.917        24389 
  126000    295.00205    5387.5081   -12784.893        24389 
  127000    301.26482    6599.7616   -12784.925        24389 
  128000      303.778    4602.9458   -12784.915        24389 
  129000    298.23101    7413.2503   -12784.915        24389 
  130000    301.81317    7537.7825    -12784.92        24389 
  131000    302.12002    4013.2615   -12784.891        24389 
  132000    298.19969    4202.9414   -12784.892        24389 
  133000    300.74012    6548.2218   -12784.913        24389 
  134000    301.77291    6251.0761   -12784.912        24389 
  135000    293.87693    5862.4784   -12784.901        24389 
  136000     304.8307    3564.7454   -12784.928        24389 
  137000    301.00739    5330.9505   -12784.917        24389 
  138000    301.51139    4870.4433   -12784.915        24389 
  139000    302.80046    5959.1289   -12784.946        24389 
  140000    292.77656    3568.4253   -12784.905        24389 
  141000    303.18004    7518.0337   -12784.927        24389 
  142000    301.65749    7450.5067   -12784.921        24389 
  143000    296.07954    3830.9146   -12784.906        24389 
  144000    304.23575    3195.0004   -12784.917        24389 
  145000    300.50631    6710.8728    -12784.91        24389 
  146000     304.3302     4946.544   -12784.918        24389 
  147000    299.71893    4167.3861     -12784.9        24389 
  148000    304.24668    6568.5715    -12784.92        24389 
  149000    300.66901    3378.1056     -12784.9        24389 
  150000    304.07367    4520.9545   -12784.919        24389 
  151000    300.64027    6100.5212   -12784.911        24389 
  152000    294.64758     3295.049   -12784.904        24389 
  153000    307.01248    6295.5137   -12784.956        24389 
  154000    306.71301    5897.5736   -12784.926        24389 
  155000    305.10688    5581.0909   -12784.921        24389 
  156000     301.0172    4813.7835   -12784.902        24389 
  157000    293.70462    4758.4302   -12784.876        24389 
  158000     304.0146    5024.2216   -12784.913        24389 
  159000    308.28447    4621.3902   -12784.936        24389 
  160000    296.11029    2703.9779   -12784.897        24389 
  161000    295.85679    5940.7961   -12784.906        24389 
  162000    301.52031    4420.1567   -12784.939        24389 
  163000    302.50843    6016.6167   -12784.942        24389 
  164000     301.1353    5374.0701   -12784.888        24389 
  165000    300.04974    5903.5279   -12784.903        24389 
  166000    297.09156    4761.4376   -12784.908        24389 
  167000    291.74889    6066.5147   -12784.905        24389 
  168000    304.77084    7788.2426   -12784.928        24389 
  169000    306.12946    5214.8724   -12784.923        24389 
  170000    297.58809    6089.7338   -12784.911        24389 
  171000     299.5764    6075.3582   -12784.913        24389 
  172000    302.60774    3565.9484   -12784.942        24389 
  173000    294.22691    5791.9998   -12784.914        24389 
  174000    298.48801    5731.1328   -12784.922        24389 
  175000    299.30897    6376.7046   -12784.904        24389 
  176000    303.95517     5261.661   -12784.936        24389 
  177000    303.31915    4473.4247    -12784.93        24389 
  178000    298.92152    4906.5793   -12784.917        24389 
  179000    295.26604    3773.9294   -12784.893        24389 
  180000    299.58624    5877.6864   -12784.918        24389 
  181000    299.68694     4537.734   -12784.907        24389 
  182000    295.87912    6671.3266   -12784.902        24389 
  183000    303.91614     4276.026    -12784.89        24389 
  184000    295.63022    3152.0156   -12784.902        24389 
  185000    304.43077    5403.3594   -12784.933        24389 
  186000    305.40579    6037.2417   -12784.923        24389 
  187000    301.95547    6880.5172   -12784.929        24389 
  188000    301.63694    3856.7772   -12784.915        24389 
  189000    302.67259    2348.0749   -12784.931        24389 
  190000    300.27219    7589.1337   -12784.922        24389 
  191000    298.00856    6924.2224   -12784.919        24389 
  192000     300.9486    4495.3821   -12784.934        24389 
  193000    299.77306    3989.2204   -12784.926        24389 
  194000    298.69426    4778.9388   -12784.914        24389 
  195000    303.47777    5424.9742   -12784.934        24389 
  196000    291.55169      6986.73   -12784.897        24389 
  197000    300.22976    5388.8488   -12784.908        24389 
  198000    298.51633    6725.1716   -12784.921        24389 
  199000    302.02444    4357.8717   -12784.914        24389 
  200000    300.19463    4762.2002   -12784.907        24389 
Loop time of 2034.14 on 16 procs for 100000 steps with 1920 atoms

Pair  time (%) = 1835.24 (90.2222)
Bond  time (%) = 0.0409385 (0.00201257)
Neigh time (%) = 5.44792 (0.267825)
Comm  time (%) = 187.79 (9.23193)
Outpt time (%) = 0.00992839 (0.000488089)
Other time (%) = 5.60463 (0.275529)

Nlocal:    120 ave 126 max 110 min
Histogram: 1 1 0 0 4 0 3 1 5 1
Nghost:    4883.94 ave 4905 max 4860 min
Histogram: 2 1 3 0 1 1 3 0 3 2
Neighs:    51765.3 ave 54408 max 47135 min
Histogram: 1 0 1 0 4 0 3 1 5 1
FullNghs: 103531 ave 109128 max 94527 min
Histogram: 1 0 1 0 4 0 3 1 5 1

Total # of neighbors = 1656490
Ave neighs/atom = 862.755
Ave special neighs/atom = 0
Neighbor list builds = 651
Dangerous builds = 0
#	run             	10000
	unfix 			1
#--------------------------------------------------------------------------
#kappa
#--------------------------------------------------------------------------
log 	log_kappa_${iseed}.lammps
log 	log_kappa_2.lammps
