
#--------------------------------------------------------------------------
#nve rescale
#--------------------------------------------------------------------------
	velocity 		all create ${T_run} ${seed} rot yes dist gaussian
	velocity 		all create 300 ${seed} rot yes dist gaussian
	velocity 		all create 300 11111 rot yes dist gaussian

	fix 			1 all nve
	fix 			2 all temp/rescale 1 ${T_run} ${T_run} 0.01 1.0
	fix 			2 all temp/rescale 1 300 ${T_run} 0.01 1.0
	fix 			2 all temp/rescale 1 300 300 0.01 1.0
	timestep		${dt}
	timestep		0.001
	thermo_style  		custom step temp press etotal vol
	thermo			1000
	run             	100000	
Memory usage per processor = 3.77135 Mbytes
Step Temp Press TotEng Volume 
       0          300    82199.028   -13937.121        24389 
    1000          300   -59282.538   -14203.105        24389 
    2000          300   -58724.917   -14181.282        24389 
    3000          300   -54668.908   -14170.368        24389 
    4000          300   -56954.141   -14173.113        24389 
    5000          300    -58726.17   -14183.944        24389 
    6000          300   -57032.277   -14176.989        24389 
    7000          300   -58240.723   -14170.966        24389 
    8000          300   -58584.445   -14176.303        24389 
    9000          300   -58075.552   -14173.664        24389 
   10000          300   -58609.079   -14176.569        24389 
   11000          300   -60435.435   -14179.659        24389 
   12000          300   -59815.147   -14175.819        24389 
   13000          300   -57133.448    -14171.25        24389 
   14000          300   -57666.733    -14171.52        24389 
   15000          300   -59573.055   -14170.543        24389 
   16000          300    -58701.21   -14172.769        24389 
   17000          300   -58174.051   -14172.528        24389 
   18000          300   -59369.006   -14174.684        24389 
   19000          300    -58583.11   -14172.815        24389 
   20000          300   -58682.863    -14171.49        24389 
   21000          300   -59536.449   -14173.855        24389 
   22000          300   -60737.748   -14173.687        24389 
   23000          300   -58724.052   -14170.154        24389 
   24000          300   -59903.605   -14169.885        24389 
   25000          300   -58669.562   -14172.366        24389 
   26000          300   -58877.753    -14168.54        24389 
   27000          300   -57123.353    -14168.36        24389 
   28000          300   -58333.608   -14170.948        24389 
   29000          300   -61540.619   -14177.411        24389 
   30000          300    -60742.45   -14172.155        24389 
   31000          300   -60942.587   -14173.196        24389 
   32000          300   -60148.515    -14174.48        24389 
   33000          300   -60214.156   -14174.506        24389 
   34000          300    -57591.96   -14169.744        24389 
   35000          300   -60717.056   -14171.196        24389 
   36000          300   -60449.646   -14171.319        24389 
   37000          300   -60581.296   -14169.272        24389 
   38000          300   -61441.722   -14177.167        24389 
   39000          300   -59122.216   -14176.993        24389 
   40000          300   -61397.235   -14172.282        24389 
   41000          300    -62483.94   -14177.272        24389 
   42000          300   -61772.134    -14178.31        24389 
   43000          300   -61145.787   -14175.717        24389 
   44000    299.99901   -61076.185   -14177.271        24389 
   45000          300   -61327.932   -14177.389        24389 
   46000          300   -65154.363   -14175.262        24389 
   47000          300   -61039.154    -14176.61        24389 
   48000          300   -61342.822   -14179.314        24389 
   49000          300   -64062.391   -14179.039        24389 
   50000          300   -61561.213   -14179.582        24389 
   51000          300   -63738.363   -14180.733        24389 
   52000          300   -63339.659   -14179.458        24389 
   53000          300     -64966.3   -14178.822        24389 
   54000          300    -64067.06   -14182.419        24389 
   55000          300   -63435.146   -14181.044        24389 
   56000          300   -62564.984   -14179.215        24389 
   57000          300   -64111.176   -14179.144        24389 
   58000          300   -61991.246   -14173.159        24389 
   59000          300   -65243.249   -14182.062        24389 
   60000          300   -64657.079    -14175.93        24389 
   61000          300   -64371.987   -14180.305        24389 
   62000          300   -66403.769   -14182.353        24389 
   63000          300   -64995.685   -14181.375        24389 
   64000          300   -63792.949   -14179.951        24389 
   65000          300   -63695.942   -14179.072        24389 
   66000          300    -66791.09   -14185.433        24389 
   67000          300   -66122.837   -14183.216        24389 
   68000          300   -64117.118   -14177.474        24389 
   69000          300   -65967.643   -14178.832        24389 
   70000          300   -66228.329   -14178.118        24389 
   71000          300   -64880.398   -14181.118        24389 
   72000          300   -64739.902   -14180.708        24389 
   73000          300   -64883.906   -14180.693        24389 
   74000          300   -64318.256    -14178.58        24389 
   75000          300   -65042.774   -14182.761        24389 
   76000          300   -63255.884   -14180.721        24389 
   77000          300   -66614.319   -14184.638        24389 
   78000          300   -66085.163   -14180.608        24389 
   79000          300   -66240.679   -14180.228        24389 
   80000          300   -66754.872   -14182.523        24389 
   81000          300   -65391.946   -14182.048        24389 
   82000          300   -66063.106   -14182.118        24389 
   83000          300    -67176.66   -14182.384        24389 
   84000          300   -64428.978   -14182.388        24389 
   85000          300   -65350.893   -14179.091        24389 
   86000          300   -66945.461   -14182.148        24389 
   87000          300   -66411.549   -14184.794        24389 
   88000          300   -63884.035   -14181.071        24389 
   89000          300   -67154.318   -14183.376        24389 
   90000          300   -67067.874   -14179.662        24389 
   91000          300   -65573.919   -14183.563        24389 
   92000          300   -64882.697   -14182.138        24389 
   93000          300   -67205.988   -14183.403        24389 
   94000          300    -65079.55   -14182.787        24389 
   95000          300   -65242.598   -14182.766        24389 
   96000          300   -65849.592   -14182.193        24389 
   97000          300   -67164.988   -14181.979        24389 
   98000          300   -67125.165   -14180.362        24389 
   99000          300    -68266.88   -14180.321        24389 
  100000          300   -66284.427   -14183.139        24389 
Loop time of 2027.38 on 16 procs for 100000 steps with 1920 atoms

Pair  time (%) = 1841.34 (90.8238)
Bond  time (%) = 0.0521494 (0.00257226)
Neigh time (%) = 5.74725 (0.283482)
Comm  time (%) = 172.103 (8.48893)
Outpt time (%) = 0.0106757 (0.000526578)
Other time (%) = 8.12312 (0.400671)

Nlocal:    120 ave 125 max 115 min
Histogram: 1 0 1 2 3 3 2 1 2 1
Nghost:    4916.5 ave 4937 max 4891 min
Histogram: 1 2 0 2 0 3 3 1 1 3
Neighs:    51727.2 ave 53939 max 49658 min
Histogram: 1 1 2 2 3 3 1 1 1 1
FullNghs: 103454 ave 107740 max 99334 min
Histogram: 1 1 2 2 3 3 1 1 1 1

Total # of neighbors = 1655270
Ave neighs/atom = 862.12
Ave special neighs/atom = 0
Neighbor list builds = 682
Dangerous builds = 0
#	run             	1000
	unfix 			1
	unfix 			2
#--------------------------------------------------------------------------
#nve
#--------------------------------------------------------------------------
	fix 			1 all nve
	timestep		${dt}
	timestep		0.001
	thermo_style  		custom step temp press etotal vol
	thermo			1000
	run             	100000	
Memory usage per processor = 3.77517 Mbytes
Step Temp Press TotEng Volume 
  100000          300   -66284.427   -14183.139        24389 
  101000    302.68937   -67681.467   -14183.199        24389 
  102000    309.80944   -66511.484   -14183.227        24389 
  103000    303.30773   -65950.604   -14183.156        24389 
  104000    306.65748    -67086.64     -14183.2        24389 
  105000    297.33355   -68939.316   -14183.181        24389 
  106000    302.94094    -66587.83   -14183.147        24389 
  107000    301.64132   -66122.376   -14183.199        24389 
  108000    304.47716   -65406.266   -14183.228        24389 
  109000    303.23642   -65726.842     -14183.2        24389 
  110000    293.75973   -66274.571    -14183.15        24389 
  111000     292.1603   -65578.688   -14183.178        24389 
  112000      303.023   -68186.598   -14183.232        24389 
  113000    307.87329   -69279.484   -14183.236        24389 
  114000    293.92099   -69858.197   -14183.185        24389 
  115000    301.84028   -69961.402    -14183.24        24389 
  116000    299.75519   -68414.355   -14183.221        24389 
  117000    305.29363   -66834.431   -14183.215        24389 
  118000    298.67981   -68476.209   -14183.222        24389 
  119000    306.78969   -70130.963   -14183.241        24389 
  120000    297.84337   -67394.177    -14183.19        24389 
  121000    308.54659   -66773.132   -14183.291        24389 
  122000    299.58085   -66176.967   -14183.273        24389 
  123000    296.92437   -65411.861   -14183.243        24389 
  124000    301.52781   -67701.641   -14183.227        24389 
  125000    296.46207   -67130.342   -14183.256        24389 
  126000    300.16942    -67201.14   -14183.247        24389 
  127000    299.36504   -69193.599   -14183.251        24389 
  128000    303.05512   -68678.263   -14183.236        24389 
  129000    301.70704   -69762.171   -14183.245        24389 
  130000    296.63093   -69263.443   -14183.239        24389 
  131000    303.50725   -69654.274   -14183.257        24389 
  132000    301.18294   -68388.292   -14183.249        24389 
  133000    298.47538   -66665.185   -14183.236        24389 
  134000    304.75699   -69879.063   -14183.257        24389 
  135000    302.70938    -70165.01   -14183.278        24389 
  136000    301.57224    -68499.62   -14183.264        24389 
  137000    296.56247   -68594.214   -14183.256        24389 
  138000     307.3901   -69565.285   -14183.275        24389 
  139000    303.24154   -69663.147   -14183.278        24389 
  140000    303.27661   -68666.693   -14183.262        24389 
  141000    294.02825    -67011.34   -14183.245        24389 
  142000    303.34995   -66339.961   -14183.273        24389 
  143000    302.01587    -68154.76   -14183.279        24389 
  144000    289.81457   -67244.554   -14183.248        24389 
  145000    303.85229    -68299.84   -14183.282        24389 
  146000    297.47911   -67168.881   -14183.299        24389 
  147000    305.38741   -68069.595   -14183.291        24389 
  148000    297.97268   -68737.136   -14183.263        24389 
  149000    295.45606   -69560.499   -14183.274        24389 
  150000    300.83423   -71151.657   -14183.284        24389 
  151000    299.81529   -69805.702   -14183.277        24389 
  152000    302.44761   -71334.989   -14183.282        24389 
  153000     290.2035   -69502.718   -14183.238        24389 
  154000    299.47386   -69594.349   -14183.302        24389 
  155000    299.22476   -68602.258    -14183.27        24389 
  156000    305.99138   -68522.364   -14183.308        24389 
  157000    292.81503   -67420.087    -14183.22        24389 
  158000    297.73194   -68285.025   -14183.309        24389 
  159000    297.61597   -68434.517   -14183.272        24389 
  160000     299.4999   -69162.036   -14183.249        24389 
  161000    291.21053   -67293.219   -14183.263        24389 
  162000    300.44877   -68325.869   -14183.305        24389 
  163000    300.76005   -69688.354   -14183.298        24389 
  164000    299.33227   -70360.136   -14183.292        24389 
  165000    303.76314   -70274.113   -14183.278        24389 
  166000     296.9063   -70399.004   -14183.259        24389 
  167000     294.0968   -70879.055   -14183.256        24389 
  168000    298.41786    -69442.97   -14183.259        24389 
  169000    303.76038   -69770.908    -14183.34        24389 
  170000    296.62939   -67654.073   -14183.304        24389 
  171000    296.17022   -67919.101   -14183.255        24389 
  172000    298.71806   -67763.587   -14183.297        24389 
  173000    301.96264   -68139.131   -14183.308        24389 
  174000    302.78373   -69130.138   -14183.326        24389 
  175000    300.31202   -68655.869   -14183.312        24389 
  176000    305.83786   -67646.526   -14183.307        24389 
  177000    297.37408   -68938.039    -14183.28        24389 
  178000    298.38194   -69476.061   -14183.307        24389 
  179000    308.05668   -69321.972   -14183.285        24389 
  180000    296.75453   -70223.348   -14183.288        24389 
  181000    302.78835   -67887.134   -14183.301        24389 
  182000    300.28389   -68613.745   -14183.253        24389 
  183000    293.78901   -67301.385   -14183.304        24389 
  184000     302.6995   -69603.109   -14183.338        24389 
  185000    294.15462   -68694.988   -14183.279        24389 
  186000    294.73436   -67766.692   -14183.307        24389 
  187000    298.99787   -68082.346   -14183.316        24389 
  188000    300.20203   -68221.838   -14183.305        24389 
  189000     301.4661   -71287.221   -14183.305        24389 
  190000    305.42555   -69447.837    -14183.36        24389 
  191000    301.79813   -70018.064   -14183.288        24389 
  192000    296.23346   -69095.562   -14183.296        24389 
  193000    302.50383    -68316.35   -14183.316        24389 
  194000    294.44388    -67625.41    -14183.25        24389 
  195000    310.56086   -70516.099   -14183.351        24389 
  196000    299.20573   -69154.824   -14183.303        24389 
  197000    304.49842   -69201.928   -14183.312        24389 
  198000    299.07396   -68597.885   -14183.282        24389 
  199000     299.9234   -68990.627   -14183.276        24389 
  200000    299.58991   -69040.562   -14183.307        24389 
Loop time of 2034.7 on 16 procs for 100000 steps with 1920 atoms

Pair  time (%) = 1843.29 (90.5932)
Bond  time (%) = 0.0543985 (0.00267355)
Neigh time (%) = 0.716456 (0.0352119)
Comm  time (%) = 183.346 (9.01099)
Outpt time (%) = 0.0154649 (0.00076006)
Other time (%) = 7.26818 (0.357212)

Nlocal:    120 ave 124 max 112 min
Histogram: 1 0 0 0 1 4 3 3 2 2
Nghost:    4922.12 ave 4936 max 4907 min
Histogram: 2 1 2 0 4 0 2 1 1 3
Neighs:    51709.4 ave 53476 max 48150 min
Histogram: 1 0 0 0 1 3 4 3 2 2
FullNghs: 103419 ave 106837 max 96502 min
Histogram: 1 0 0 0 1 4 3 3 2 2

Total # of neighbors = 1654700
Ave neighs/atom = 861.823
Ave special neighs/atom = 0
Neighbor list builds = 85
Dangerous builds = 0
#	run             	10000
	unfix 			1
#--------------------------------------------------------------------------
#kappa
#--------------------------------------------------------------------------
log 	log_kappa_${iseed}.lammps
log 	log_kappa_1.lammps
