
#--------------------------------------------------------------------------
#nve rescale
#--------------------------------------------------------------------------
	velocity 		all create ${T_run} ${seed} rot yes dist gaussian
	velocity 		all create 300 ${seed} rot yes dist gaussian
	velocity 		all create 300 77777 rot yes dist gaussian

	fix 			1 all nve
	fix 			2 all temp/rescale 1 ${T_run} ${T_run} 0.01 1.0
	fix 			2 all temp/rescale 1 300 ${T_run} 0.01 1.0
	fix 			2 all temp/rescale 1 300 300 0.01 1.0
	timestep		${dt}
	timestep		0.001
	thermo_style  		custom step temp press etotal vol
	thermo			1000
	run             	100000	
Memory usage per processor = 3.77135 Mbytes
Step Temp Press TotEng Volume 
       0          300    175110.51    -12580.78        24389 
    1000          300    8534.7002   -12771.077        24389 
    2000          300    19669.135   -12789.096        24389 
    3000          300    11562.325   -12781.072        24389 
    4000          300    870.51357    -12783.99        24389 
    5000          300   -4264.5796    -12781.78        24389 
    6000          300     3467.639   -12781.639        24389 
    7000          300    14952.417   -12782.415        24389 
    8000          300    14505.769   -12783.683        24389 
    9000          300    3282.7425   -12782.119        24389 
   10000          300   -2530.9205   -12782.884        24389 
   11000          300    2780.5776   -12782.465        24389 
   12000          300    9136.3961   -12785.393        24389 
   13000          300     4841.998   -12783.226        24389 
   14000          300    2792.7007   -12784.797        24389 
   15000          300    3548.7404   -12782.777        24389 
   16000          300    6817.4109   -12783.221        24389 
   17000          300    7665.2615   -12782.423        24389 
   18000          300    5635.1223   -12784.673        24389 
   19000          300    3906.2304   -12784.767        24389 
   20000          300    3045.0554   -12781.541        24389 
   21000          300    3217.9116    -12783.47        24389 
   22000          300     6386.466   -12783.594        24389 
   23000          300    8991.1659   -12784.291        24389 
   24000          300    2862.2449   -12783.536        24389 
   25000          300    2936.8025   -12783.965        24389 
   26000          300    3604.5169   -12784.004        24389 
   27000          300    7282.4666   -12782.577        24389 
   28000          300    5542.7316   -12783.795        24389 
   29000          300    5809.2036    -12783.11        24389 
   30000          300    4050.9184   -12783.237        24389 
   31000          300    6718.1999   -12782.967        24389 
   32000          300    4821.0673    -12784.75        24389 
   33000          300    2504.5452   -12782.608        24389 
   34000          300    5476.7628   -12783.454        24389 
   35000          300     5717.601   -12781.503        24389 
   36000          300    3858.8587   -12785.399        24389 
   37000          300    3595.8244    -12783.88        24389 
   38000          300    3760.8833   -12782.174        24389 
   39000          300    5275.3028   -12784.558        24389 
   40000          300    4621.5625   -12782.944        24389 
   41000          300    3690.6451   -12783.669        24389 
   42000          300    3991.9222   -12784.139        24389 
   43000          300    6204.4757       -12785        24389 
   44000          300    6231.9972   -12782.893        24389 
   45000          300    3723.9615   -12783.884        24389 
   46000          300    1295.7806   -12783.855        24389 
   47000          300    2791.0757   -12785.809        24389 
   48000          300    6290.2206     -12786.7        24389 
   49000          300    7185.8695   -12785.031        24389 
   50000          300    3479.8668   -12784.985        24389 
   51000          300    1522.9759   -12783.938        24389 
   52000          300    5676.0034   -12783.323        24389 
   53000          300    6354.6752   -12785.188        24389 
   54000          300    4210.3693   -12786.578        24389 
   55000          300     4547.314   -12785.465        24389 
   56000          300     6458.128   -12785.039        24389 
   57000          300    4499.7704   -12784.494        24389 
   58000          300    2733.1757   -12783.947        24389 
   59000          300    3813.2114   -12785.646        24389 
   60000          300    3851.8124   -12784.505        24389 
   61000          300    4746.3467    -12785.46        24389 
   62000          300      7619.15   -12783.356        24389 
   63000          300    5212.6353   -12784.913        24389 
   64000          300    1304.0778    -12784.33        24389 
   65000          300    3678.5609   -12786.284        24389 
   66000          300    6299.8563   -12784.432        24389 
   67000          300    5166.2257   -12783.636        24389 
   68000          300    4737.9201   -12786.211        24389 
   69000          300    4406.2674   -12784.803        24389 
   70000          300    4495.8937   -12784.594        24389 
   71000          300     6616.708   -12784.144        24389 
   72000          300    2434.0521   -12785.229        24389 
   73000          300    3684.5718   -12784.167        24389 
   74000          300    4699.1448   -12783.538        24389 
   75000          300     7082.847   -12783.241        24389 
   76000          300    4714.3338   -12785.916        24389 
   77000          300    3282.2185   -12785.821        24389 
   78000          300     4956.911   -12785.819        24389 
   79000          300    5849.6455   -12785.665        24389 
   80000          300    3358.4814   -12786.273        24389 
   81000          300    3965.5662   -12784.658        24389 
   82000          300    6189.7292   -12784.735        24389 
   83000          300    8121.5719   -12784.403        24389 
   84000          300    1418.8126   -12784.321        24389 
   85000          300    4680.8299   -12786.953        24389 
   86000          300    6012.0627   -12784.231        24389 
   87000          300      5823.83   -12785.157        24389 
   88000          300    4569.7583   -12786.123        24389 
   89000          300    5174.4351   -12787.919        24389 
   90000          300    4656.8847     -12782.5        24389 
   91000          300    5016.4785   -12786.096        24389 
   92000          300    7515.6704   -12785.756        24389 
   93000          300    7102.7357   -12785.213        24389 
   94000          300    4503.0961     -12786.9        24389 
   95000          300    746.53305   -12787.341        24389 
   96000          300    3927.8172   -12782.973        24389 
   97000          300    9286.8354   -12783.574        24389 
   98000          300    5524.5987   -12785.242        24389 
   99000          300    4129.0272   -12785.421        24389 
  100000          300    5156.4238   -12786.442        24389 
Loop time of 2254.07 on 16 procs for 100000 steps with 1920 atoms

Pair  time (%) = 1862.34 (82.6213)
Bond  time (%) = 0.0444617 (0.0019725)
Neigh time (%) = 4.67083 (0.207217)
Comm  time (%) = 379.108 (16.8188)
Outpt time (%) = 0.00854218 (0.000378966)
Other time (%) = 7.89708 (0.350347)

Nlocal:    120 ave 126 max 114 min
Histogram: 3 0 0 1 2 5 1 3 0 1
Nghost:    4896.19 ave 4943 max 4861 min
Histogram: 4 1 1 2 0 3 2 1 1 1
Neighs:    51746 ave 55227 max 48946 min
Histogram: 1 2 1 1 4 3 3 0 0 1
FullNghs: 103492 ave 109467 max 98468 min
Histogram: 3 0 1 2 3 2 2 2 0 1

Total # of neighbors = 1655872
Ave neighs/atom = 862.433
Ave special neighs/atom = 0
Neighbor list builds = 553
Dangerous builds = 0
