
#--------------------------------------------------------------------------
#nve rescale
#--------------------------------------------------------------------------
	velocity 		all create ${T_run} ${seed} rot yes dist gaussian
	velocity 		all create 300 ${seed} rot yes dist gaussian
	velocity 		all create 300 33333 rot yes dist gaussian

	fix 			1 all nve
	fix 			2 all temp/rescale 1 ${T_run} ${T_run} 0.01 1.0
	fix 			2 all temp/rescale 1 300 ${T_run} 0.01 1.0
	fix 			2 all temp/rescale 1 300 300 0.01 1.0
	timestep		${dt}
	timestep		0.001
	thermo_style  		custom step temp press etotal vol
	thermo			1000
	run             	100000	
Memory usage per processor = 3.77135 Mbytes
Step Temp Press TotEng Volume 
       0          300    175110.51    -12580.78        24389 
    1000          300    6291.1257   -12772.103        24389 
    2000          300    19663.471    -12788.64        24389 
    3000          300    12617.438   -12783.012        24389 
    4000          300    3471.1754   -12782.849        24389 
    5000          300   -2816.0169   -12781.701        24389 
    6000          300    3678.3157   -12783.359        24389 
    7000          300    11955.889   -12784.208        24389 
    8000          300    11168.145    -12782.39        24389 
    9000          300    1580.9718   -12781.648        24389 
   10000          300   -1363.1828   -12780.463        24389 
   11000          300    1242.4464   -12782.297        24389 
   12000          300     8913.428   -12783.187        24389 
   13000    299.99787    7432.5867    -12783.81        24389 
   14000          300     4383.218   -12782.667        24389 
   15000          300    1491.0126   -12782.942        24389 
   16000          300     6160.878   -12785.011        24389 
   17000          300    6355.1024   -12783.314        24389 
   18000          300    4517.7455   -12784.053        24389 
   19000          300    5927.1248   -12781.828        24389 
   20000          300    4443.8469   -12784.839        24389 
   21000          300    3203.2642   -12783.974        24389 
   22000          300    2479.0797   -12784.307        24389 
   23000          300    3051.8731   -12783.251        24389 
   24000          300    5381.8503   -12785.209        24389 
   25000          300    7576.0719   -12783.699        24389 
   26000          300    5222.4017   -12781.867        24389 
   27000          300    1124.6614   -12784.629        24389 
   28000          300     4969.321   -12784.992        24389 
   29000          300    6123.6493   -12783.149        24389 
   30000          300    4386.8176   -12784.539        24389 
   31000          300    3466.9474    -12784.55        24389 
   32000          300    4809.2506   -12784.539        24389 
   33000          300    4500.4811   -12785.055        24389 
   34000          300    3783.9758   -12785.553        24389 
   35000          300    5555.8587   -12783.642        24389 
   36000          300    4430.1492   -12785.357        24389 
   37000          300    5503.5996   -12786.183        24389 
   38000          300    4199.9422   -12783.663        24389 
   39000          300     3060.531   -12782.659        24389 
   40000          300     4114.625   -12783.966        24389 
   41000          300    7357.6821   -12783.517        24389 
   42000          300    3908.2695   -12783.853        24389 
   43000          300    4403.6925   -12783.782        24389 
   44000          300    3137.5056   -12783.098        24389 
   45000          300     7014.413   -12782.263        24389 
   46000          300    5389.2379   -12786.149        24389 
   47000          300    4660.8099   -12785.412        24389 
   48000          300    5302.3485   -12783.267        24389 
   49000          300    2872.3151   -12782.458        24389 
   50000          300    4357.0817   -12785.424        24389 
   51000          300    5022.3948   -12784.488        24389 
   52000          300    3375.6074   -12782.499        24389 
   53000          300    6446.0781   -12783.662        24389 
   54000          300    6436.4623   -12785.245        24389 
   55000          300    4419.7821   -12782.569        24389 
   56000          300    1758.1622    -12783.49        24389 
   57000          300    3004.0875   -12785.438        24389 
   58000          300    5447.7106   -12784.335        24389 
   59000          300    4376.5932   -12785.106        24389 
   60000          300    5431.6636   -12784.607        24389 
   61000          300    7446.4477   -12784.103        24389 
   62000          300    3341.2038   -12784.356        24389 
   63000          300     3768.262   -12783.842        24389 
   64000          300    5035.9242   -12785.378        24389 
   65000          300    5386.9277   -12783.053        24389 
   66000          300    6075.8487   -12784.298        24389 
   67000          300    3811.5901   -12784.099        24389 
   68000          300    6262.1954   -12783.055        24389 
   69000          300    5139.6722   -12786.499        24389 
   70000          300    3128.6226   -12786.561        24389 
   71000          300    3049.7053   -12787.172        24389 
   72000          300    5339.8972   -12785.502        24389 
   73000          300    7313.9532    -12784.16        24389 
   74000          300    4561.1542   -12783.862        24389 
   75000          300    7255.0996   -12786.091        24389 
   76000          300    4881.1599    -12784.46        24389 
   77000          300    4668.8513   -12783.314        24389 
   78000          300    5184.7351   -12785.664        24389 
   79000          300    5243.2112   -12783.551        24389 
   80000          300    7161.4056     -12784.6        24389 
   81000          300    4224.9277    -12786.88        24389 
   82000          300     5377.285   -12785.347        24389 
   83000          300    6549.8674   -12783.583        24389 
   84000          300    3482.6613   -12784.712        24389 
   85000          300    4281.8937   -12786.102        24389 
   86000          300    6068.8591   -12783.329        24389 
   87000          300    6990.7089    -12783.72        24389 
   88000          300    5041.2405   -12784.563        24389 
   89000          300    5612.0685   -12785.056        24389 
   90000          300    6212.7338   -12785.817        24389 
   91000          300      5678.99   -12785.654        24389 
   92000          300    2515.0299    -12784.78        24389 
   93000          300    5584.7997   -12784.606        24389 
   94000          300    7126.8635   -12783.017        24389 
   95000          300    5818.0375   -12784.982        24389 
   96000          300    7294.1527   -12785.009        24389 
   97000          300    4124.4209   -12784.375        24389 
   98000          300    3450.1806   -12785.891        24389 
   99000          300    5941.9808   -12786.222        24389 
  100000          300    6233.2618    -12785.25        24389 
Loop time of 2267.47 on 16 procs for 100000 steps with 1920 atoms

Pair  time (%) = 1853.46 (81.7414)
Bond  time (%) = 0.0426826 (0.00188239)
Neigh time (%) = 4.61652 (0.203598)
Comm  time (%) = 402.058 (17.7316)
Outpt time (%) = 0.00871794 (0.000384478)
Other time (%) = 7.28154 (0.32113)

Nlocal:    120 ave 126 max 112 min
Histogram: 1 0 2 2 0 4 0 3 3 1
Nghost:    4895.06 ave 4935 max 4863 min
Histogram: 3 2 1 1 1 2 2 3 0 1
Neighs:    51740.5 ave 53818 max 47870 min
Histogram: 1 0 1 1 2 1 2 1 3 4
FullNghs: 103481 ave 108699 max 96432 min
Histogram: 1 0 2 2 0 4 1 1 4 1

Total # of neighbors = 1655696
Ave neighs/atom = 862.342
Ave special neighs/atom = 0
Neighbor list builds = 552
Dangerous builds = 0
#	run             	1000
	unfix 			1
	unfix 			2
#--------------------------------------------------------------------------
#nve
#--------------------------------------------------------------------------
	fix 			1 all nve
	timestep		${dt}
	timestep		0.001
	thermo_style  		custom step temp press etotal vol
	thermo			1000
	run             	100000	
Memory usage per processor = 3.77517 Mbytes
Step Temp Press TotEng Volume 
  100000          300    6233.2618    -12785.25        24389 
  101000    300.23962    3836.7685   -12785.242        24389 
  102000    298.34359    4260.0591   -12785.248        24389 
  103000    301.89909    7614.5834   -12785.241        24389 
  104000    307.73947     4910.981   -12785.269        24389 
  105000    297.32856    4197.6571   -12785.238        24389 
  106000    293.05362    6338.8271   -12785.212        24389 
  107000     298.4652    6969.4104   -12785.222        24389 
  108000    304.39067    5824.2371   -12785.245        24389 
  109000    302.67956    1196.7508   -12785.259        24389 
  110000    301.56821    4099.8127    -12785.23        24389 
  111000    302.85843    9729.6557   -12785.243        24389 
  112000    302.62006    5044.3302   -12785.223        24389 
  113000    302.50513    1787.0731   -12785.261        24389 
  114000    298.99432    4419.2836   -12785.237        24389 
  115000    297.33644    8755.5616   -12785.233        24389 
  116000    309.73606    4271.9576   -12785.264        24389 
  117000    305.25063    3192.0416   -12785.252        24389 
  118000    298.74103     6161.009   -12785.235        24389 
  119000    304.42377    7711.8881   -12785.251        24389 
  120000    298.33902    2579.5668   -12785.216        24389 
  121000    298.46732    3376.7842   -12785.245        24389 
  122000    303.52029    9854.8711   -12785.252        24389 
  123000    299.16527    6364.1769   -12785.245        24389 
  124000    299.48914    2182.5012   -12785.217        24389 
  125000    298.46805    2770.4092   -12785.234        24389 
  126000     296.9759    5907.5825   -12785.238        24389 
  127000    308.05416    7420.9576   -12785.259        24389 
  128000    301.51399    4257.9512   -12785.245        24389 
  129000    297.68962    1937.0328   -12785.242        24389 
  130000    298.96656    4702.6634    -12785.26        24389 
  131000    296.02213    5819.4776   -12785.221        24389 
  132000    297.43537    6696.0158   -12785.233        24389 
  133000    294.21207    6438.0904   -12785.233        24389 
  134000     293.6586    4073.1763    -12785.25        24389 
  135000    297.63283    7447.3011   -12785.252        24389 
  136000    302.90001     5407.347   -12785.277        24389 
  137000    298.00104    4928.2822   -12785.251        24389 
  138000    301.54169    5210.5124   -12785.251        24389 
  139000    305.32288    5326.3456   -12785.264        24389 
  140000    298.60478    4418.2625   -12785.246        24389 
  141000    298.26778    3698.0673   -12785.246        24389 
  142000    296.87726    4054.2322   -12785.231        24389 
  143000    299.78786    5097.6546   -12785.245        24389 
  144000    293.27874      4462.97   -12785.246        24389 
  145000    299.83989    5420.4493   -12785.241        24389 
  146000    301.58577    5810.8158   -12785.255        24389 
  147000    300.68369    4424.4243   -12785.258        24389 
  148000    297.15726    1927.9839   -12785.236        24389 
  149000    299.47815     5993.936   -12785.248        24389 
  150000    296.75677    5652.4358   -12785.246        24389 
  151000    298.69358    4288.4749   -12785.241        24389 
  152000    299.55897    6609.6791   -12785.255        24389 
  153000     296.8931    5935.6227   -12785.251        24389 
  154000    292.24588    1924.4993   -12785.221        24389 
  155000    296.19386    7174.5603   -12785.251        24389 
  156000    295.85454    6506.2917   -12785.258        24389 
  157000    294.02294    5375.6072   -12785.244        24389 
  158000     291.8447    2733.1289   -12785.248        24389 
  159000    293.91949    3157.8478   -12785.247        24389 
  160000    297.68897    7531.7516   -12785.247        24389 
  161000    293.28993      5213.95   -12785.211        24389 
  162000    296.50935    3614.7052    -12785.24        24389 
  163000    301.12693    7439.6871   -12785.249        24389 
  164000    299.49643    5483.8303   -12785.254        24389 
  165000    311.14037    3027.3481    -12785.29        24389 
  166000    310.08597    3504.0447   -12785.268        24389 
  167000    303.48193    5625.4029   -12785.261        24389 
  168000    299.71661    7926.8934    -12785.26        24389 
  169000    299.29791    2915.9655   -12785.263        24389 
  170000    296.26981    4497.8833   -12785.229        24389 
  171000    300.53127    7614.6177   -12785.246        24389 
  172000    297.18009    3504.8248   -12785.231        24389 
  173000    301.08309    3738.3279   -12785.246        24389 
  174000     300.7665    5081.2276   -12785.261        24389 
  175000     297.9205    5005.2491   -12785.273        24389 
  176000     298.0543    5191.3935   -12785.253        24389 
  177000    297.03216    4595.6562   -12785.263        24389 
  178000    298.99991    6462.2526   -12785.257        24389 
  179000    302.35698    3737.2495   -12785.257        24389 
  180000    296.78137    5173.1631   -12785.249        24389 
  181000    296.78094    8351.2864   -12785.255        24389 
  182000    300.53206    7659.4917   -12785.279        24389 
  183000    296.10507    3483.4887   -12785.266        24389 
  184000    300.32878    5368.0275    -12785.29        24389 
  185000    302.78176    5944.7489    -12785.27        24389 
  186000    298.79534    7593.9069   -12785.278        24389 
  187000    291.18512    4400.5737   -12785.217        24389 
  188000    308.64987    2926.6876   -12785.274        24389 
  189000    305.33265    6430.8663   -12785.257        24389 
  190000    296.48056    5185.0454   -12785.241        24389 
  191000    296.75132    4543.8914   -12785.243        24389 
  192000    301.02051    7483.0082   -12785.271        24389 
  193000    299.91112    5721.5699   -12785.269        24389 
  194000    295.70354    1930.2825   -12785.256        24389 
  195000    299.36139    5798.6554   -12785.252        24389 
  196000    297.75531     7960.614   -12785.249        24389 
  197000    296.81781    3797.1604   -12785.224        24389 
  198000    300.73235    5128.5398   -12785.262        24389 
  199000     297.2075    4777.6995   -12785.241        24389 
  200000    301.88242    2574.0719   -12785.264        24389 
Loop time of 2281.11 on 16 procs for 100000 steps with 1920 atoms

Pair  time (%) = 1857.78 (81.4419)
Bond  time (%) = 0.0418864 (0.00183623)
Neigh time (%) = 5.23566 (0.229522)
Comm  time (%) = 412.351 (18.0768)
Outpt time (%) = 0.010173 (0.000445968)
Other time (%) = 5.69137 (0.2495)

Nlocal:    120 ave 125 max 114 min
Histogram: 1 0 2 1 2 3 2 3 1 1
Nghost:    4897.62 ave 4945 max 4854 min
Histogram: 2 0 2 4 2 1 2 0 1 2
Neighs:    51747.4 ave 54034 max 48708 min
Histogram: 1 0 1 1 2 3 2 5 0 1
FullNghs: 103495 ave 107913 max 97696 min
Histogram: 1 0 1 2 1 3 3 3 1 1

Total # of neighbors = 1655918
Ave neighs/atom = 862.457
Ave special neighs/atom = 0
Neighbor list builds = 625
Dangerous builds = 0
#	run             	10000
	unfix 			1
#--------------------------------------------------------------------------
#kappa
#--------------------------------------------------------------------------
log 	log_kappa_${iseed}.lammps
log 	log_kappa_3.lammps
