
#--------------------------------------------------------------------------
#nve rescale
#--------------------------------------------------------------------------
	velocity 		all create ${T_run} ${seed} rot yes dist gaussian
	velocity 		all create 300 ${seed} rot yes dist gaussian
	velocity 		all create 300 44444 rot yes dist gaussian

	fix 			1 all nve
	fix 			2 all temp/rescale 1 ${T_run} ${T_run} 0.01 1.0
	fix 			2 all temp/rescale 1 300 ${T_run} 0.01 1.0
	fix 			2 all temp/rescale 1 300 300 0.01 1.0
	timestep		${dt}
	timestep		0.001
	thermo_style  		custom step temp press etotal vol
	thermo			1000
	run             	100000	
Memory usage per processor = 3.77135 Mbytes
Step Temp Press TotEng Volume 
       0          300    175110.51    -12580.78        24389 
    1000          300    7467.8321   -12770.995        24389 
    2000          300    23294.241   -12788.685        24389 
    3000          300    15206.337   -12782.221        24389 
    4000          300    -563.7369   -12782.375        24389 
    5000          300   -4811.7789   -12781.589        24389 
    6000          300    7805.3543   -12781.725        24389 
    7000          300    11320.571   -12783.541        24389 
    8000          300    7337.8193   -12783.823        24389 
    9000          300    401.41041   -12781.934        24389 
   10000          300    2287.4529   -12783.588        24389 
   11000          300    6356.6016   -12782.264        24389 
   12000          300     2641.408   -12782.809        24389 
   13000          300    3262.8386     -12783.1        24389 
   14000          300    6341.6505   -12781.557        24389 
   15000          300    5516.2582   -12782.958        24389 
   16000          300    5193.7467   -12782.662        24389 
   17000          300    3470.0825   -12784.926        24389 
   18000          300    6683.1412   -12780.166        24389 
   19000          300    4650.3006   -12783.301        24389 
   20000          300     1910.857   -12783.845        24389 
   21000          300    871.18583   -12784.291        24389 
   22000          300    4634.5169   -12783.977        24389 
   23000          300     5766.892   -12784.328        24389 
   24000          300    3936.0411    -12782.53        24389 
   25000          300    4247.9786   -12782.615        24389 
   26000          300    5653.3475   -12782.981        24389 
   27000          300    5417.1259   -12785.256        24389 
   28000          300    4446.2409   -12785.935        24389 
   29000          300    4203.3411   -12785.488        24389 
   30000          300    4008.3485   -12781.421        24389 
   31000          300    4632.8641   -12782.889        24389 
   32000          300    4589.3028   -12780.779        24389 
   33000          300    5743.3166   -12784.974        24389 
   34000          300    5335.9981    -12782.62        24389 
   35000          300    4401.1511   -12783.286        24389 
   36000          300    4389.7659   -12784.003        24389 
   37000          300    6349.5493   -12784.897        24389 
   38000          300    5151.0862   -12785.754        24389 
   39000          300    5433.7164   -12782.137        24389 
   40000          300    2261.6891   -12783.527        24389 
   41000          300    6019.8454   -12784.024        24389 
   42000          300    6043.6459   -12784.996        24389 
   43000          300    4541.9986   -12782.822        24389 
   44000          300    3555.5819   -12783.951        24389 
   45000          300    3604.9232   -12785.398        24389 
   46000          300    6051.9815   -12783.942        24389 
   47000          300    4646.5364   -12784.008        24389 
   48000          300    4085.7098   -12784.476        24389 
   49000          300    6876.6957   -12783.825        24389 
   50000          300    7509.6417    -12784.04        24389 
   51000          300    4201.1037   -12786.733        24389 
   52000          300    1630.7089   -12783.806        24389 
   53000          300     4047.525   -12781.378        24389 
   54000          300     7705.835   -12785.428        24389 
   55000    300.00794    5390.7569   -12784.473        24389 
   56000          300    3054.8936   -12784.655        24389 
   57000          300    5287.2874   -12782.093        24389 
   58000          300    5219.9899   -12783.612        24389 
   59000          300     4834.645   -12785.111        24389 
   60000          300    5078.0483   -12784.654        24389 
   61000          300    4678.7406   -12782.233        24389 
   62000          300    2344.6675   -12784.496        24389 
   63000          300    7232.1172   -12785.404        24389 
   64000          300    4443.7062   -12781.991        24389 
   65000          300      3892.73    -12783.81        24389 
   66000          300    3949.7898   -12783.602        24389 
   67000          300    6493.0337   -12784.055        24389 
   68000          300    4705.1056   -12787.342        24389 
   69000          300    5868.2668   -12782.934        24389 
   70000          300    3949.0729    -12786.17        24389 
   71000          300    4526.8172   -12784.434        24389 
   72000          300    4586.1222   -12784.078        24389 
   73000          300    4336.1771   -12784.125        24389 
   74000          300    4323.1492    -12786.36        24389 
   75000          300     3028.279   -12785.104        24389 
   76000          300    3285.0219   -12785.031        24389 
   77000          300    5737.3378   -12784.725        24389 
   78000          300    6344.6944   -12783.465        24389 
   79000          300    5596.8463    -12785.72        24389 
   80000          300    4097.3084   -12787.203        24389 
   81000          300    6126.5295   -12784.979        24389 
   82000          300    1770.7342   -12787.094        24389 
   83000          300    3532.4297   -12783.984        24389 
   84000          300    5014.9054    -12783.81        24389 
   85000          300    10983.705    -12784.78        24389 
   86000          300    6919.1625   -12785.149        24389 
   87000          300    3616.1169   -12784.269        24389 
   88000          300    4601.9723    -12782.95        24389 
   89000          300    6873.2956   -12786.227        24389 
   90000          300    4147.9775   -12784.863        24389 
   91000          300    4091.1871   -12785.333        24389 
   92000          300     3115.814   -12784.436        24389 
   93000          300    5554.9473   -12785.174        24389 
   94000          300     6778.253   -12784.858        24389 
   95000          300    6297.9621   -12786.826        24389 
   96000          300    5729.0473    -12786.58        24389 
   97000          300    4241.9072   -12785.282        24389 
   98000          300    4503.6251   -12786.075        24389 
   99000          300    5390.7021   -12786.149        24389 
  100000          300    4011.6059   -12784.988        24389 
Loop time of 2040.75 on 16 procs for 100000 steps with 1920 atoms

Pair  time (%) = 1835.34 (89.9347)
Bond  time (%) = 0.0442996 (0.00217075)
Neigh time (%) = 4.58883 (0.224861)
Comm  time (%) = 192.847 (9.44984)
Outpt time (%) = 0.00891599 (0.000436899)
Other time (%) = 7.91756 (0.387974)

Nlocal:    120 ave 126 max 112 min
Histogram: 2 1 1 0 1 2 3 2 0 4
Nghost:    4904.62 ave 4949 max 4844 min
Histogram: 1 1 0 1 2 5 1 1 1 3
Neighs:    51756.8 ave 54662 max 48204 min
Histogram: 2 1 1 2 1 1 2 2 1 3
FullNghs: 103514 ave 108662 max 96041 min
Histogram: 1 1 2 1 1 1 2 3 0 4

Total # of neighbors = 1656218
Ave neighs/atom = 862.614
Ave special neighs/atom = 0
Neighbor list builds = 548
Dangerous builds = 0
#	run             	1000
	unfix 			1
	unfix 			2
#--------------------------------------------------------------------------
#nve
#--------------------------------------------------------------------------
	fix 			1 all nve
	timestep		${dt}
	timestep		0.001
	thermo_style  		custom step temp press etotal vol
	thermo			1000
	run             	100000	
Memory usage per processor = 3.77517 Mbytes
Step Temp Press TotEng Volume 
  100000          300    4011.6059   -12784.988        24389 
  101000    307.61843    7192.5463   -12784.993        24389 
  102000    300.32031    3755.6889   -12784.975        24389 
  103000    297.18034    5186.4073   -12784.979        24389 
  104000    301.25373    7388.2289    -12784.99        24389 
  105000    301.36877    4961.0223   -12785.004        24389 
  106000    298.56561    2773.7476   -12784.968        24389 
  107000    300.82881    6562.9095    -12784.99        24389 
  108000    302.22564    7463.0275   -12784.978        24389 
  109000    296.77568    4350.8733    -12784.98        24389 
  110000    290.49892    4885.8877   -12784.963        24389 
  111000    297.41922    6806.3347   -12784.982        24389 
  112000    300.49761    7088.6365    -12784.98        24389 
  113000    301.47852    4227.8642   -12784.986        24389 
  114000    299.96133    2869.8378   -12784.975        24389 
  115000    299.59309    5813.3679   -12784.975        24389 
  116000    292.92039    6206.5342   -12784.989        24389 
  117000      300.308    4261.1229   -12785.005        24389 
  118000    304.07551    4142.2919   -12784.994        24389 
  119000    299.26371    6739.1464   -12784.968        24389 
  120000    304.01078    4225.9126   -12785.018        24389 
  121000    299.07603    4904.8506    -12784.99        24389 
  122000    297.28266    5085.2553   -12784.985        24389 
  123000    294.92991    3179.4911   -12784.973        24389 
  124000    297.33131    6112.1163    -12784.99        24389 
  125000    296.01232    3606.9778    -12784.98        24389 
  126000     300.2327    3507.8308   -12785.004        24389 
  127000    306.21587    5604.1065   -12785.011        24389 
  128000    293.54545    3641.2307   -12784.943        24389 
  129000    299.87202    5999.2799   -12784.986        24389 
  130000    298.63796    5673.1356   -12784.986        24389 
  131000    300.21073    3303.1214   -12784.981        24389 
  132000    297.19184    6319.2105    -12784.98        24389 
  133000    298.17554    9564.2014   -12784.996        24389 
  134000     291.3915    6023.7228   -12784.972        24389 
  135000    296.31952    3555.2242   -12784.985        24389 
  136000    300.95303    3917.0958   -12784.977        24389 
  137000    296.96263    7271.1352   -12784.979        24389 
  138000    302.46586    6386.0143   -12784.978        24389 
  139000    305.59233    5998.3977   -12785.008        24389 
  140000    303.84377    5343.2452   -12784.987        24389 
  141000    299.23847    4509.2741   -12784.985        24389 
  142000    302.84475    5259.4016   -12784.998        24389 
  143000    297.49977    4946.8769    -12784.99        24389 
  144000    303.08364    4272.7136   -12784.994        24389 
  145000    300.56553    6733.1503   -12785.003        24389 
  146000    298.62839    6335.7752   -12784.987        24389 
  147000    303.65015    5829.0029   -12784.982        24389 
  148000     303.2338    3125.2579    -12784.98        24389 
  149000    306.49882    5456.5075   -12785.011        24389 
  150000    303.75039    5563.2805   -12785.012        24389 
  151000    299.16058     4009.202   -12785.002        24389 
  152000    292.57668    4048.6987   -12784.949        24389 
  153000    296.68481    7042.4872   -12784.996        24389 
  154000    300.89742    3072.6772   -12784.983        24389 
  155000    295.62089    4832.3473   -12784.989        24389 
  156000    297.13848    5519.1622   -12784.975        24389 
  157000    298.14033    7271.8216   -12784.966        24389 
  158000     301.7186    2921.9463   -12784.998        24389 
  159000    305.64942    3145.1149       -12785        24389 
  160000    296.81417    8436.0289   -12784.971        24389 
  161000    297.58623     5637.706   -12784.984        24389 
  162000    300.73435    3579.6168   -12784.998        24389 
  163000    302.12593    5667.1637   -12784.997        24389 
  164000    303.31278    5591.8239   -12785.015        24389 
  165000     308.4712    6656.6689   -12785.015        24389 
  166000    302.71633    3704.2156   -12784.982        24389 
  167000    301.96459    4692.3476   -12784.992        24389 
  168000       304.56    6738.2459   -12784.995        24389 
  169000    300.92616    3872.8138   -12784.968        24389 
  170000     301.6835    2985.6593   -12785.002        24389 
  171000    302.57545    5950.8065   -12785.014        24389 
  172000    303.96153    3621.0353       -12785        24389 
  173000    300.73107    4763.4172   -12784.996        24389 
  174000    303.97322    5603.7022   -12785.006        24389 
  175000    292.63568    3509.1842   -12784.953        24389 
  176000    302.89317    5072.7302   -12785.005        24389 
  177000    300.54277    6214.3316    -12784.97        24389 
  178000    300.23868    4021.3383   -12784.985        24389 
  179000    299.15363     3335.649   -12784.975        24389 
  180000    299.74076    4522.6064   -12784.961        24389 
  181000    300.03512     6369.869   -12784.986        24389 
  182000    301.01841    4339.3145   -12784.995        24389 
  183000    291.36819     4885.034   -12784.963        24389 
  184000    304.22835    4630.8849   -12784.989        24389 
  185000    305.28628    6598.2107   -12784.997        24389 
  186000    297.54227    4207.5306   -12784.973        24389 
  187000    296.22895    3583.7197   -12784.983        24389 
  188000    300.41588    6154.6139   -12785.002        24389 
  189000    307.38827      6867.16   -12785.005        24389 
  190000    295.68541    4924.8961   -12784.985        24389 
  191000    302.55152    4882.4699   -12784.983        24389 
  192000    294.77338    4433.4988   -12784.964        24389 
  193000    296.14368     5299.097   -12784.972        24389 
  194000    290.63361    7976.4369   -12784.957        24389 
  195000    296.46505    5647.2288   -12784.976        24389 
  196000    295.47476    6002.0852    -12784.97        24389 
  197000    302.17267    2695.7214   -12784.985        24389 
  198000    300.19491    5135.2138   -12784.977        24389 
  199000    294.42293    8597.7168   -12784.975        24389 
  200000    291.14059    6813.8754   -12784.958        24389 
Loop time of 2043.05 on 16 procs for 100000 steps with 1920 atoms

Pair  time (%) = 1839.28 (90.0261)
Bond  time (%) = 0.0429632 (0.00210289)
Neigh time (%) = 5.11687 (0.250452)
Comm  time (%) = 192.202 (9.40759)
Outpt time (%) = 0.00981905 (0.000480607)
Other time (%) = 6.40094 (0.313303)

Nlocal:    120 ave 126 max 113 min
Histogram: 1 2 0 2 0 3 5 1 0 2
Nghost:    4895.12 ave 4920 max 4864 min
Histogram: 1 0 3 1 1 2 2 3 2 1
Neighs:    51760.1 ave 54536 max 48940 min
Histogram: 3 0 2 0 3 1 3 2 0 2
FullNghs: 103520 ave 109125 max 97540 min
Histogram: 2 1 1 1 2 3 2 2 0 2

Total # of neighbors = 1656322
Ave neighs/atom = 862.668
Ave special neighs/atom = 0
Neighbor list builds = 609
Dangerous builds = 0
#	run             	10000
	unfix 			1
#--------------------------------------------------------------------------
#kappa
#--------------------------------------------------------------------------
log 	log_kappa_${iseed}.lammps
log 	log_kappa_4.lammps
