
#--------------------------------------------------------------------------
#nve rescale
#--------------------------------------------------------------------------
	velocity 		all create ${T_run} ${seed} rot yes dist gaussian
	velocity 		all create 300 ${seed} rot yes dist gaussian
	velocity 		all create 300 55555 rot yes dist gaussian

	fix 			1 all nve
	fix 			2 all temp/rescale 1 ${T_run} ${T_run} 0.01 1.0
	fix 			2 all temp/rescale 1 300 ${T_run} 0.01 1.0
	fix 			2 all temp/rescale 1 300 300 0.01 1.0
	timestep		${dt}
	timestep		0.001
	thermo_style  		custom step temp press etotal vol
	thermo			1000
	run             	100000	
Memory usage per processor = 3.77135 Mbytes
Step Temp Press TotEng Volume 
       0          300    175110.51    -12580.78        24389 
    1000          300    11378.048    -12774.73        24389 
    2000          300    23313.109   -12788.625        24389 
    3000          300    11961.938   -12780.008        24389 
    4000          300   -772.94569   -12784.724        24389 
    5000          300   -4470.1033   -12782.939        24389 
    6000          300    5913.4585   -12782.191        24389 
    7000          300     12362.97   -12783.246        24389 
    8000          300    5354.7418   -12782.746        24389 
    9000          300   -910.49386   -12784.303        24389 
   10000          300    3655.4646   -12783.958        24389 
   11000          300    8888.5161   -12784.145        24389 
   12000          300    7290.9938   -12784.261        24389 
   13000          300    1545.4988   -12781.934        24389 
   14000          300    675.94566   -12782.259        24389 
   15000          300    4865.0988   -12785.045        24389 
   16000          300    8856.0279   -12783.606        24389 
   17000          300    4693.3316   -12783.961        24389 
   18000          300    103.69773   -12782.738        24389 
   19000          300    4592.4195   -12783.901        24389 
   20000          300    7604.3073   -12784.422        24389 
   21000          300    6063.6856   -12783.282        24389 
   22000          300    5790.8016   -12784.508        24389 
   23000          300    4930.4009    -12784.67        24389 
   24000          300    3930.2832   -12783.121        24389 
   25000          300    4403.9772   -12782.781        24389 
   26000          300    5973.4642   -12785.092        24389 
   27000          300    6511.7021   -12784.588        24389 
   28000          300    3205.0108    -12785.11        24389 
   29000          300    4436.0828   -12784.072        24389 
   30000          300    3146.9262    -12783.48        24389 
   31000          300    4181.0139   -12782.926        24389 
   32000          300    4576.2447   -12785.638        24389 
   33000          300    2210.5401   -12785.355        24389 
   34000          300    1874.8883   -12784.042        24389 
   35000          300    6375.9657   -12784.342        24389 
   36000          300    6337.7612   -12784.832        24389 
   37000          300    4416.5479   -12783.435        24389 
   38000          300    3956.5592   -12783.845        24389 
   39000          300    2859.5772   -12784.696        24389 
   40000          300    3841.3938   -12781.856        24389 
   41000          300    6547.1224   -12784.063        24389 
   42000          300    6052.4279   -12782.521        24389 
   43000          300    5487.4457   -12783.296        24389 
   44000          300    5007.9844   -12783.063        24389 
   45000          300    6527.7694   -12783.186        24389 
   46000          300    5130.1692   -12783.684        24389 
   47000          300    5157.5867   -12783.983        24389 
   48000          300    3727.6287   -12785.273        24389 
   49000          300     3460.624   -12782.179        24389 
   50000          300    4130.3208   -12783.554        24389 
   51000          300    4500.4711   -12785.153        24389 
   52000          300    5801.4231    -12786.64        24389 
   53000          300    3840.2847   -12784.691        24389 
   54000          300    5969.5801   -12783.838        24389 
   55000          300    4444.8961   -12784.453        24389 
   56000          300    4346.0581    -12784.19        24389 
   57000          300    5644.9844    -12783.77        24389 
   58000          300    5991.0664   -12783.039        24389 
   59000          300    5090.8738   -12783.517        24389 
   60000          300    2208.3601   -12783.591        24389 
   61000          300    6011.2422   -12784.399        24389 
   62000          300    6404.3719   -12784.525        24389 
   63000          300    4689.3888   -12785.048        24389 
   64000          300    4363.0747   -12784.208        24389 
   65000          300    4186.2407   -12784.521        24389 
   66000          300    4740.3797   -12786.331        24389 
   67000          300    5666.0759    -12786.26        24389 
   68000          300    6294.2287    -12785.85        24389 
   69000          300    4355.0058   -12784.706        24389 
   70000          300    3050.6865   -12786.575        24389 
   71000          300    4921.7578   -12785.536        24389 
   72000          300    5577.3902   -12785.275        24389 
   73000          300      5041.34   -12784.398        24389 
   74000          300    5300.3611   -12784.611        24389 
   75000          300    6334.8082   -12784.919        24389 
   76000          300    4057.7468       -12785        24389 
   77000          300    2040.2475   -12783.744        24389 
   78000          300    7821.1915   -12785.254        24389 
   79000          300    7406.0485   -12786.587        24389 
   80000          300    3772.8409   -12785.539        24389 
   81000          300    2753.3149   -12783.924        24389 
   82000    300.00774    7915.6407   -12786.229        24389 
   83000          300    5272.9861   -12784.625        24389 
   84000          300    3754.9342   -12786.068        24389 
   85000          300    3312.5992   -12785.319        24389 
   86000          300    7290.4516   -12783.964        24389 
   87000          300    6460.0359   -12783.676        24389 
   88000          300     4361.587   -12784.153        24389 
   89000          300     6878.201   -12784.104        24389 
   90000          300     3777.182   -12785.244        24389 
   91000          300    2241.2225    -12785.62        24389 
   92000          300    5520.6847   -12785.177        24389 
   93000          300    7496.7957   -12785.985        24389 
   94000          300    6490.3229   -12784.481        24389 
   95000          300    2677.3993   -12786.259        24389 
   96000          300    6060.5805   -12785.953        24389 
   97000          300    6993.0429   -12784.889        24389 
   98000          300    5094.7738    -12783.14        24389 
   99000          300     6396.481   -12782.831        24389 
  100000          300    6715.0345   -12787.121        24389 
Loop time of 2050.13 on 16 procs for 100000 steps with 1920 atoms

Pair  time (%) = 1836.85 (89.5964)
Bond  time (%) = 0.0434697 (0.00212034)
Neigh time (%) = 4.71827 (0.230145)
Comm  time (%) = 201.117 (9.80993)
Outpt time (%) = 0.00870493 (0.000424603)
Other time (%) = 7.40062 (0.360982)

Nlocal:    120 ave 128 max 113 min
Histogram: 1 1 3 1 3 1 2 2 1 1
Nghost:    4892.06 ave 4952 max 4812 min
Histogram: 1 0 0 4 2 1 2 2 1 3
Neighs:    51750.4 ave 55979 max 48913 min
Histogram: 2 3 1 3 0 4 0 2 0 1
FullNghs: 103501 ave 111915 max 96484 min
Histogram: 1 2 3 1 2 2 2 2 0 1

Total # of neighbors = 1656012
Ave neighs/atom = 862.506
Ave special neighs/atom = 0
Neighbor list builds = 562
Dangerous builds = 0
#	run             	1000
	unfix 			1
	unfix 			2
#--------------------------------------------------------------------------
#nve
#--------------------------------------------------------------------------
	fix 			1 all nve
	timestep		${dt}
	timestep		0.001
	thermo_style  		custom step temp press etotal vol
	thermo			1000
	run             	100000	
Memory usage per processor = 3.77517 Mbytes
Step Temp Press TotEng Volume 
  100000          300    6715.0345   -12787.121        24389 
  101000     297.9007    5892.8278   -12787.134        24389 
  102000    301.53538    3807.0674    -12787.14        24389 
  103000    295.42897    4155.6304   -12787.124        24389 
  104000    298.46203    5356.1415   -12787.121        24389 
  105000    290.69854    6514.2803   -12787.077        24389 
  106000    299.26601    3291.0391    -12787.13        24389 
  107000    293.13709     4472.941   -12787.112        24389 
  108000     301.9039    8836.1428   -12787.152        24389 
  109000    297.23038    5830.2233   -12787.125        24389 
  110000    300.75907    4393.9409   -12787.149        24389 
  111000    293.30125    3500.2428   -12787.114        24389 
  112000    296.96447    5453.1385   -12787.139        24389 
  113000    301.30774    7955.5872   -12787.136        24389 
  114000    295.77886    4045.7072   -12787.123        24389 
  115000     299.0251    2740.0909   -12787.137        24389 
  116000    303.24969    3158.4949   -12787.165        24389 
  117000    302.52594    6929.7576   -12787.152        24389 
  118000    299.78654    6523.5164   -12787.134        24389 
  119000    296.26963    4641.5703   -12787.151        24389 
  120000    293.48747     1766.306   -12787.103        24389 
  121000    297.89106    5998.9006   -12787.139        24389 
  122000    303.22483    8965.3443   -12787.147        24389 
  123000    300.78074    3455.1229   -12787.142        24389 
  124000    300.54918    3127.1993   -12787.134        24389 
  125000    291.41184    8794.6452   -12787.109        24389 
  126000    296.49032    7000.9029   -12787.146        24389 
  127000    281.96184    3763.3024   -12787.073        24389 
  128000    292.78588    6008.5802   -12787.128        24389 
  129000    296.08588    8911.4509    -12787.12        24389 
  130000    299.24822     1304.347    -12787.14        24389 
  131000     297.4161     3887.201   -12787.148        24389 
  132000    297.56453    9695.0563   -12787.142        24389 
  133000    301.33155    4697.0813   -12787.137        24389 
  134000    300.83591    3216.8629   -12787.153        24389 
  135000    297.60081    5466.1523   -12787.117        24389 
  136000    291.79198    4780.2496   -12787.119        24389 
  137000    294.38437    5120.6857   -12787.149        24389 
  138000    292.99576    5242.4597    -12787.13        24389 
  139000    293.48494    7388.1554   -12787.112        24389 
  140000    291.42377     3722.317   -12787.132        24389 
  141000    294.04988    4958.7662   -12787.126        24389 
  142000    290.00341    4648.5491   -12787.131        24389 
  143000      291.431    6519.2179   -12787.126        24389 
  144000    300.42612    6783.1124   -12787.135        24389 
  145000    292.09821    3145.3951    -12787.11        24389 
  146000    297.74813    3712.4481   -12787.124        24389 
  147000    292.29419    5080.3653   -12787.103        24389 
  148000    291.41239    7573.9329   -12787.115        24389 
  149000     294.4001     7495.998   -12787.113        24389 
  150000    297.22145    4851.3725   -12787.141        24389 
  151000    289.62559    5016.5546   -12787.111        24389 
  152000    289.08429    6142.5681    -12787.12        24389 
  153000    292.87467    4923.5235   -12787.127        24389 
  154000    293.36999    4317.0293   -12787.122        24389 
  155000    300.96048     6979.231   -12787.172        24389 
  156000    297.94884    4364.5887   -12787.149        24389 
  157000     292.1938    3450.0147    -12787.12        24389 
  158000    293.93002     4264.677   -12787.119        24389 
  159000    292.54235    7435.0393   -12787.112        24389 
  160000    298.66026    6359.8379   -12787.124        24389 
  161000     287.0262    3976.7213   -12787.114        24389 
  162000    294.33046    3469.8083   -12787.126        24389 
  163000    291.19628    5761.3062   -12787.116        24389 
  164000     298.5362    5672.7808   -12787.141        24389 
  165000    293.43114    5155.3246    -12787.12        24389 
  166000    294.31823    3156.3374   -12787.128        24389 
  167000      296.644    4635.7698   -12787.136        24389 
  168000    300.99918    5476.4517   -12787.146        24389 
  169000    295.40395    6420.6754   -12787.126        24389 
  170000    295.31323    4583.7425    -12787.15        24389 
  171000    297.49174    6830.8109   -12787.151        24389 
  172000    296.98947    5057.7955   -12787.143        24389 
  173000    294.01365    4570.8457   -12787.135        24389 
  174000    292.66386     4326.388   -12787.117        24389 
  175000    293.77265     7326.727   -12787.137        24389 
  176000    299.90015    5063.3063   -12787.149        24389 
  177000    293.62408    3580.4471   -12787.122        24389 
  178000    293.55019    3273.4873   -12787.113        24389 
  179000    296.20432    4817.0175   -12787.164        24389 
  180000    300.27873    3039.8376   -12787.134        24389 
  181000     292.1968    4504.6177   -12787.119        24389 
  182000    295.86513    5020.1926   -12787.138        24389 
  183000    291.33755    5268.8036   -12787.101        24389 
  184000    298.28906    9563.7945    -12787.15        24389 
  185000    299.48283    2829.6522   -12787.137        24389 
  186000    294.53598    2750.5797   -12787.111        24389 
  187000    288.39659    5520.3706   -12787.109        24389 
  188000    296.71963    4212.9587   -12787.137        24389 
  189000    296.10279    3045.9516    -12787.13        24389 
  190000     293.9794    6325.4806   -12787.109        24389 
  191000    288.18596    5045.8353   -12787.136        24389 
  192000    290.84427    4074.1654   -12787.121        24389 
  193000    296.68564    6362.1311   -12787.137        24389 
  194000    299.36856    2720.8427   -12787.138        24389 
  195000    288.52981    4113.0064   -12787.122        24389 
  196000    301.40555    4193.1361    -12787.14        24389 
  197000    293.64885    6183.8219   -12787.146        24389 
  198000    290.44875    6255.7925   -12787.107        24389 
  199000    296.27749    4728.2829   -12787.137        24389 
  200000    291.67345    4399.3151   -12787.121        24389 
Loop time of 2044.09 on 16 procs for 100000 steps with 1920 atoms

Pair  time (%) = 1840.87 (90.0581)
Bond  time (%) = 0.0445693 (0.00218039)
Neigh time (%) = 5.06467 (0.247771)
Comm  time (%) = 192.06 (9.39586)
Outpt time (%) = 0.00977151 (0.000478037)
Other time (%) = 6.04235 (0.295601)

Nlocal:    120 ave 128 max 114 min
Histogram: 1 3 3 2 0 2 1 3 0 1
Nghost:    4900.31 ave 4934 max 4866 min
Histogram: 1 1 1 0 5 4 1 2 0 1
Neighs:    51748.2 ave 55224 max 49191 min
Histogram: 1 4 2 2 0 1 3 2 0 1
FullNghs: 103496 ave 110813 max 98161 min
Histogram: 1 3 3 2 0 3 0 3 0 1

Total # of neighbors = 1655944
Ave neighs/atom = 862.471
Ave special neighs/atom = 0
Neighbor list builds = 602
Dangerous builds = 0
#	run             	10000
	unfix 			1
#--------------------------------------------------------------------------
#kappa
#--------------------------------------------------------------------------
log 	log_kappa_${iseed}.lammps
log 	log_kappa_5.lammps
