120
Atoms. Timestep: 0
1 2.34 2.6 13.406
1 1.93241 2.93336 0.705451
1 1.58037 3.0839 12.2694
1 0.399467 3.82203 12.5183
1 2.44942 0.973509 11.9153
1 2.11394 13.6251 11.7133
1 3.08683 1.37813 13.1502
1 3.33687 0.449838 0.188256
1 1.6478 2.01507 11.2729
1 0.534648 1.64085 10.4712
1 0.772569 3.78138 0.928341
1 13.9881 4.2965 13.8594
1 0.20559 3.0982 2.0756
1 12.8089 2.93248 2.15562
1 2.19015 2.03654 1.79243
1 2.75757 0.779314 1.49265
1 1.08411 2.15404 2.75146
1 0.537181 1.03268 3.44732
1 12.521 4.07947 13.9518
1 11.9624 3.45097 1.10482
1 12.0561 3.50591 12.6704
1 11.0132 2.55622 12.5792
1 13.2229 3.2867 11.8667
1 13.2851 2.26082 10.8943
1 10.9041 2.42668 1.01412
1 10.3463 2.02581 13.7703
1 11.152 1.45537 2.03697
1 10.8165 0.107009 1.83493
1 12.2563 1.82388 2.91486
1 13.0599 0.861433 3.59516
1 9.9291 0.630736 13.562
1 10.179 13.7025 0.600034
1 10.5085 0.301169 12.2576
1 11.0758 13.0439 11.9577
1 11.121 1.46429 11.6488
1 12.2026 1.34668 10.7528
1 10.9257 12.4808 0.343934
1 11.3334 12.1471 13.0446
1 11.6855 11.9967 1.48056
1 12.8664 11.2585 1.23187
1 11.6182 13.0654 2.47725
1 12.7314 13.4396 3.27898
1 12.4934 11.299 12.8219
1 13.2778 10.7839 13.8908
1 13.0604 11.9823 11.6747
1 0.457137 12.148 11.5947
1 12.1819 12.9264 10.9988
1 12.7288 0.047764 10.3029
1 0.745045 11.001 13.7984
1 1.30361 11.6295 12.6455
1 1.20994 11.5746 1.07982
1 2.25279 12.5242 1.17108
1 0.043093 11.7937 1.88352
1 13.981 12.8196 2.85596
1 2.36198 12.6538 12.7362
1 2.91977 13.0547 13.9799
1 1.00967 13.2566 10.8355
1 0.206134 0.218988 10.1551
1 2.14508 13.6162 2.10148
1 1.06341 13.7338 2.99745
2 8.30372 10.4521 12.6492
2 7.7461 11.078 13.804
2 7.45655 9.93617 11.5979
2 6.05975 10.1016 11.6801
2 9.11307 8.45891 11.7123
2 9.4464 7.10976 11.9131
2 9.36231 9.42788 12.737
2 9.92089 9.02451 13.9797
2 8.00852 8.829 10.8352
2 7.2037 7.86786 10.1543
2 6.27933 11.2953 13.8976
2 5.49378 10.7833 12.8285
2 5.86945 10.8177 1.23751
2 4.68782 10.081 1.48659
2 8.21235 10.5029 1.0842
2 9.25468 9.55241 1.17256
2 7.04629 10.283 1.88907
2 6.98429 9.25602 2.86046
2 4.33344 9.93544 13.0507
2 3.9267 9.59951 0.349816
2 4.07393 9.04133 11.9618
2 3.50726 7.78377 12.2608
2 5.18011 9.15978 11.0029
2 5.72661 8.03947 10.3051
2 3.18019 8.37759 0.604502
2 2.92881 7.45154 13.565
2 3.81951 7.97047 1.83743
2 4.15279 6.62134 2.03831
2 4.62145 9.01074 2.48194
2 5.73451 8.63549 3.28346
2 3.34506 6.05582 13.7709
2 3.90355 5.65239 1.01362
2 4.01128 5.52798 12.5781
2 5.05357 4.57743 12.6665
2 4.11919 6.62168 11.6496
2 5.20021 6.74031 10.7533
2 4.96209 4.62817 1.10146
2 5.51974 4.00228 13.9467
2 5.80926 5.14413 2.15269
2 7.20605 4.97878 2.07035
2 5.25731 6.25128 2.91537
2 6.06212 7.21241 3.59634
2 6.98651 3.78486 13.8529
2 7.77205 4.29691 0.922121
2 7.39637 4.26253 12.5131
2 8.57801 4.99929 12.264
2 6.21957 4.79732 11.8616
2 6.28155 5.82434 10.8902
2 8.93238 5.14479 0.699845
2 9.33913 5.48074 13.4008
2 9.19187 6.03894 1.78877
2 9.75849 7.29651 1.48974
2 8.08567 5.92055 2.74757
2 7.5392 7.04083 3.4454
2 10.0856 6.70265 13.1461
2 10.337 7.62872 0.185616
2 8.64443 6.06952 11.2686
2 7.53133 6.44484 10.4672
2 9.14662 8.45862 2.10094
2 8.06561 8.33999 2.99722
120
Atoms. Timestep: 10
1 2.39257 2.66849 13.4044
1 2.01609 3.02514 0.73432
1 1.66716 3.12567 12.2488
1 0.404555 3.83223 12.4303
1 2.50589 0.969036 11.8389
1 2.16571 13.6148 11.6717
1 3.1377 1.40886 13.1392
1 3.35237 0.46368 0.23891
1 1.71382 2.02477 11.2101
1 0.513454 1.69565 10.4286
1 0.767546 3.79108 0.989115
1 13.9613 4.25298 13.8772
1 0.151907 3.17487 2.15318
1 12.7868 3.02579 2.23927
1 2.26397 2.10916 1.86716
1 2.84116 0.811564 1.61667
1 1.05538 2.2089 2.75291
1 0.558577 1.03601 3.47892
1 12.4484 4.04956 13.9191
1 11.9055 3.4918 1.14179
1 12.0522 3.50299 12.6629
1 10.953 2.57622 12.5757
1 13.1859 3.355 11.7728
1 13.2529 2.32181 10.762
1 10.8002 2.48429 1.04938
1 10.2606 2.11383 13.7883
1 11.1018 1.47889 2.07919
1 10.7287 0.137883 1.92046
1 12.2219 1.84363 2.90469
1 13.0627 0.816662 3.50486
1 9.89312 0.651004 13.5727
1 10.1429 13.6883 0.646741
1 10.4535 0.312841 12.2134
1 11.0541 13.029 12.0023
1 11.0785 1.46291 11.6354
1 12.151 1.37278 10.6584
1 10.8783 12.3823 0.376518
1 11.2897 12.0861 13.0744
1 11.6314 11.9083 1.50564
1 12.8785 11.1933 1.32732
1 11.5773 13.0723 2.45025
1 12.7315 13.3612 3.27444
1 12.5189 11.2901 12.8078
1 13.3453 10.8216 13.9151
1 13.0692 11.8843 11.6176
1 0.455363 12.0594 11.5389
1 12.1499 12.8705 10.9557
1 12.6751 0.0605309 10.2472
1 0.852259 10.9615 13.7954
1 1.35204 11.5815 12.6137
1 1.2029 11.5862 1.06053
1 2.27024 12.5411 1.1458
1 0.0580624 11.7524 1.91333
1 14.0033 12.7506 2.93138
1 2.38951 12.6171 12.6979
1 2.97961 12.9697 13.9545
1 1.04267 13.214 10.8287
1 0.216367 0.216743 10.1839
1 2.19868 13.6335 2.12469
1 1.05835 13.7208 3.01044
2 8.35 10.5079 12.5903
2 7.79584 11.0951 13.8127
2 7.46301 9.95791 11.5823
2 6.09075 10.1367 11.6921
2 9.13487 8.4363 11.6938
2 9.44998 7.10285 11.901
2 9.43752 9.46638 12.6895
2 9.95684 9.07393 13.9655
2 8.05411 8.82481 10.7929
2 7.22599 7.83392 10.1762
2 6.25918 11.2893 13.9493
2 5.4702 10.7954 12.8483
2 5.86599 10.8102 1.31062
2 4.64577 10.0914 1.50571
2 8.22363 10.5508 1.1123
2 9.3228 9.59544 1.1955
2 7.06864 10.3466 1.93969
2 7.00452 9.30987 2.9224
2 4.28487 9.97754 13.0581
2 3.85242 9.66078 0.350058
2 4.0561 9.05911 11.9234
2 3.42582 7.78545 12.1455
2 5.2236 9.21309 11.0476
2 5.7204 8.0221 10.3797
2 3.15053 8.38054 0.62949
2 2.95872 7.44626 13.5341
2 3.77508 7.92797 1.87059
2 4.07756 6.5947 2.08091
2 4.60998 8.94189 2.44656
2 5.77184 8.66828 3.27939
2 3.32312 5.99575 13.7639
2 3.83409 5.62255 1.01152
2 3.94158 5.5124 12.5461
2 5.02762 4.56596 12.6246
2 4.01822 6.59871 11.5898
2 5.17112 6.72416 10.7482
2 4.94478 4.68192 1.10703
2 5.45672 4.02762 13.9221
2 5.80429 5.07592 2.21889
2 7.17154 4.90417 2.13307
2 5.2049 6.24453 2.92448
2 6.05796 7.2357 3.58082
2 6.98545 3.84902 13.8348
2 7.82365 4.28045 0.943863
2 7.35956 4.26864 12.4732
2 8.59913 4.94816 12.2803
2 6.1984 4.71069 11.7466
2 6.25828 5.78766 10.8326
2 9.03547 5.0959 0.70511
2 9.42593 5.39473 13.402
2 9.30608 6.03425 1.81666
2 9.78695 7.33363 1.52103
2 8.08424 5.90585 2.65363
2 7.58832 7.05194 3.43016
2 10.1121 6.67587 13.1275
2 10.3646 7.62525 0.183819
2 8.65138 6.07637 11.3525
2 7.5409 6.36472 10.4639
2 9.20689 8.47979 2.13027
2 8.11753 8.38521 3.04948
120
Atoms. Timestep: 20
1 2.59243 2.8132 13.4215
1 2.14329 3.1845 0.798236
1 1.66846 3.1849 12.1784
1 0.40173 3.89228 12.4263
1 2.69198 0.978126 11.7629
1 2.30823 13.5577 11.5372
1 3.13999 1.43372 13.1372
1 3.33796 0.431333 0.20823
1 1.76746 2.083 11.1498
1 0.548614 1.68002 10.4043
1 0.805748 3.84113 0.973352
1 13.9521 4.17325 13.813
1 0.173818 3.35653 2.29694
1 12.6771 3.1704 2.39026
1 2.32799 2.17561 1.94725
1 2.99583 0.854321 1.69318
1 1.11152 2.25436 2.83463
1 0.556605 1.03471 3.4083
1 12.4675 4.04383 13.9794
1 11.8046 3.549 1.19379
1 11.9854 3.54346 12.5867
1 10.8902 2.61656 12.5099
1 13.1699 3.50486 11.613
1 13.2082 2.4552 10.5996
1 10.6828 2.5891 1.12555
1 10.1589 2.15156 13.8007
1 10.9196 1.53625 2.21129
1 10.5741 0.0988172 2.01646
1 12.1745 1.86442 2.9377
1 13.0705 0.835019 3.4568
1 9.91183 0.632127 13.5666
1 10.1103 13.6464 0.673079
1 10.3602 0.261806 12.1687
1 11.0157 12.9684 11.9071
1 10.9284 1.51125 11.5325
1 12.0488 1.41936 10.5678
1 10.6714 12.2743 0.396099
1 11.183 11.9718 13.0408
1 11.57 11.8393 1.59269
1 12.864 11.1223 1.34421
1 11.5258 12.9998 2.51917
1 12.7118 13.3821 3.25755
1 12.4534 11.2466 12.8378
1 13.3322 10.8461 13.935
1 13.0576 11.7282 11.464
1 0.533173 11.9068 11.3516
1 12.121 12.8257 10.9357
1 12.6729 0.00927025 10.2652
1 0.857236 10.9625 13.7861
1 1.44517 11.513 12.5376
1 1.27566 11.5679 1.12335
1 2.34538 12.5209 1.21371
1 0.124943 11.5717 2.05724
1 14.0379 12.6426 3.04154
1 2.5356 12.5596 12.6426
1 3.05558 12.9864 13.9552
1 1.0518 13.2005 10.7842
1 0.155237 0.22655 10.2074
1 2.27151 13.5916 2.22139
1 1.14049 13.6895 3.11764
2 8.4427 10.5578 12.5993
2 7.8211 11.1236 13.8277
2 7.5527 10.115 11.4452
2 6.10445 10.2616 11.561
2 9.29075 8.5237 11.5746
2 9.58925 7.10448 11.8159
2 9.5227 9.54596 12.653
2 10.0484 9.14117 13.9525
2 8.08687 8.87253 10.7887
2 7.1902 7.81975 10.2454
2 6.30232 11.221 13.9494
2 5.4649 10.8364 12.8173
2 5.84018 10.8814 1.35558
2 4.58523 10.1207 1.53382
2 8.29972 10.6107 1.15581
2 9.38695 9.68613 1.21832
2 7.11117 10.4912 2.10971
2 7.08064 9.40846 3.08381
2 4.12667 10.1122 13.0189
2 3.666 9.77969 0.383071
2 3.95994 9.1221 11.9092
2 3.28104 7.83651 12.0897
2 5.17066 9.17783 11.0234
2 5.73948 8.00856 10.4013
2 3.14346 8.39545 0.595112
2 2.96272 7.41908 13.5045
2 3.61999 7.94467 1.97813
2 3.92191 6.5254 2.20039
2 4.57559 9.02031 2.49605
2 5.74624 8.6558 3.24643
2 3.21937 5.99425 13.7409
2 3.7428 5.53956 1.07414
2 3.86444 5.42992 12.4731
2 4.96058 4.47516 12.5648
2 3.91044 6.57009 11.4377
2 5.12846 6.68887 10.642
2 4.88179 4.61191 1.13085
2 5.48472 4.08086 13.9328
2 5.74554 4.92952 2.32759
2 7.24372 4.76485 2.24935
2 5.20225 6.14313 2.9886
2 6.09679 7.21094 3.50207
2 6.94273 3.90672 13.8367
2 7.81546 4.2568 0.98943
2 7.38127 4.21114 12.4427
2 8.65347 4.89774 12.2304
2 6.11597 4.53819 11.6245
2 6.20803 5.65397 10.678
2 9.18765 4.91345 0.791716
2 9.61184 5.23626 13.4103
2 9.33406 5.98824 1.84842
2 9.96256 7.29789 1.59072
2 8.12871 5.90385 2.71786
2 7.58893 7.06714 3.38076
2 10.159 6.64749 13.11
2 10.3283 7.66012 0.192318
2 8.67934 6.02662 11.2808
2 7.53195 6.36434 10.4834
2 9.34661 8.56356 2.22619
2 8.18882 8.41976 3.13767
120
Atoms. Timestep: 30
1 2.7047 2.94434 13.3981
1 2.2633 3.26834 0.818241
1 1.73236 3.23419 12.193
1 0.398714 3.89772 12.4051
1 2.77354 1.00353 11.6607
1 2.46801 13.5569 11.4257
1 3.15364 1.45575 13.0966
1 3.34068 0.50598 0.228981
1 1.80714 2.08311 11.1539
1 0.498995 1.68202 10.3683
1 0.836943 3.90053 1.02117
1 13.9478 4.10474 13.851
1 0.191446 3.48678 2.38785
1 12.6994 3.29402 2.49119
1 2.42183 2.23052 1.96971
1 3.01858 0.875847 1.68538
1 1.16499 2.3359 2.88522
1 0.502633 1.02343 3.34316
1 12.4566 4.0151 13.9217
1 11.7935 3.63454 1.27364
1 11.9304 3.66572 12.5724
1 10.7765 2.65593 12.4798
1 13.1084 3.64865 11.5109
1 13.1791 2.50189 10.4917
1 10.5441 2.59671 1.17286
1 10.1448 2.1001 13.7964
1 10.7226 1.52949 2.3473
1 10.472 0.0751089 2.06971
1 12.09 1.95839 3.01342
1 13.0374 0.871513 3.4058
1 9.94562 0.605048 13.5617
1 10.0443 13.6087 0.675048
1 10.3091 0.23506 12.1235
1 10.9003 12.8895 11.8668
1 10.808 1.5293 11.3888
1 12.012 1.40783 10.468
1 10.5651 12.1634 0.397344
1 11.0412 11.8825 12.9964
1 11.5038 11.7933 1.60323
1 12.8609 11.105 1.35127
1 11.4458 12.9778 2.62867
1 12.7621 13.4205 3.2588
1 12.4317 11.1807 12.7356
1 13.2911 10.8607 13.9138
1 13.079 11.5989 11.3844
1 0.557126 11.7647 11.227
1 12.1168 12.7776 10.9276
1 12.6822 0.049272 10.3342
1 0.792997 11.0536 13.7874
1 1.4878 11.4555 12.461
1 1.35465 11.4182 1.16016
1 2.44403 12.4705 1.24281
1 0.145919 11.4311 2.22457
1 14.0614 12.5921 3.16501
1 2.69084 12.4983 12.5779
1 3.05048 13.0292 13.9834
1 1.11815 13.1586 10.7148
1 0.168992 0.220489 10.2861
1 2.44404 13.5786 2.32148
1 1.22717 13.6672 3.22402
2 8.45566 10.6294 12.564
2 7.81751 11.0858 13.8322
2 7.56727 10.2842 11.3093
2 6.06903 10.3897 11.4307
2 9.47751 8.56158 11.4585
2 9.74627 7.093 11.7107
2 9.62531 9.6146 12.639
2 10.0941 9.13846 13.9538
2 8.14451 8.94851 10.7828
2 7.19578 7.87521 10.3691
2 6.33799 11.1565 13.9254
2 5.45389 10.8582 12.7503
2 5.86446 10.9425 1.33481
2 4.54339 10.2051 1.57385
2 8.33776 10.7258 1.21111
2 9.50845 9.69616 1.27068
2 7.14481 10.6537 2.23873
2 7.07453 9.51113 3.19942
2 3.99137 10.2675 12.9884
2 3.58444 9.88956 0.347888
2 3.87563 9.16768 11.8183
2 3.23215 7.83292 12.0847
2 5.15502 9.23396 11.0009
2 5.71412 7.99353 10.3864
2 3.09002 8.41276 0.644536
2 2.91955 7.45533 13.5107
2 3.50315 7.94722 2.05548
2 3.80012 6.48725 2.33173
2 4.46764 9.03773 2.57715
2 5.78473 8.61808 3.27446
2 3.18033 5.96534 13.7265
2 3.63962 5.48187 1.10578
2 3.74235 5.39462 12.4101
2 4.87492 4.37883 12.5417
2 3.80369 6.51349 11.3709
2 5.0368 6.63414 10.4933
2 4.84735 4.48721 1.20078
2 5.49955 4.1199 13.9206
2 5.76155 4.79972 2.44243
2 7.22513 4.69214 2.34124
2 5.14153 6.08667 3.03928
2 6.09756 7.18218 3.38926
2 6.96922 3.96275 13.8694
2 7.86322 4.18727 1.02452
2 7.40034 4.11182 12.4481
2 8.71906 4.85506 12.186
2 6.11773 4.39899 11.5458
2 6.17422 5.52008 10.528
2 9.29469 4.78276 0.791557
2 9.73732 5.12858 13.4026
2 9.36644 5.92869 1.92151
2 10.0668 7.2816 1.65875
2 8.17609 5.82608 2.83608
2 7.56004 7.0682 3.32409
2 10.1976 6.65792 13.1084
2 10.3277 7.65775 0.202526
2 8.7683 6.00349 11.1824
2 7.48222 6.4217 10.4753
2 9.50123 8.57544 2.32285
2 8.28303 8.44586 3.21009
120
Atoms. Timestep: 40
1 2.67945 2.93662 13.3802
1 2.26052 3.31076 0.803449
1 1.74345 3.23311 12.1585
1 0.419241 3.89539 12.465
1 2.74615 1.01324 11.6604
1 2.52355 13.5134 11.3782
1 3.22213 1.57092 13.0734
1 3.33117 0.544543 0.173356
1 1.74566 2.09313 11.1596
1 0.548876 1.69848 10.4325
1 0.867758 3.92885 1.0733
1 13.9573 4.10615 13.8774
1 0.255027 3.47879 2.39953
1 12.6653 3.33739 2.47906
1 2.44177 2.2703 1.96678
1 2.97398 0.898655 1.61201
1 1.15352 2.34471 2.86804
1 0.559162 1.10443 3.3191
1 12.4612 3.99883 13.986
1 11.749 3.61041 1.22828
1 11.8191 3.70237 12.5505
1 10.7247 2.69682 12.4659
1 13.0906 3.62854 11.4899
1 13.146 2.50809 10.5072
1 10.5546 2.58215 1.1926
1 10.1934 2.02445 13.8031
1 10.6714 1.58492 2.38533
1 10.4472 0.0362872 2.10435
1 12.0366 1.99955 3.06975
1 13.0222 0.921145 3.38769
1 9.94779 0.567013 13.5531
1 9.99988 13.5655 0.670827
1 10.279 0.222729 12.1327
1 10.8405 12.8597 11.8131
1 10.7906 1.50922 11.3308
1 11.9893 1.39596 10.4579
1 10.5865 12.1642 0.371644
1 10.9986 11.7724 12.9457
1 11.4966 11.8136 1.60523
1 12.8137 11.132 1.32123
1 11.4437 12.9645 2.6471
1 12.6901 13.4355 3.26235
1 12.3861 11.125 12.6896
1 13.2963 10.8961 13.8331
1 13.0272 11.6178 11.3486
1 0.625187 11.7616 11.2404
1 12.103 12.7699 10.9467
1 12.7211 0.0122456 10.4105
1 0.779564 11.1128 13.7797
1 1.48027 11.4769 12.4928
1 1.39181 11.3499 1.20805
1 2.5156 12.3966 1.27705
1 0.151562 11.4151 2.25465
1 14.0914 12.5946 3.21894
1 2.6948 12.4991 12.5525
1 3.0389 13.0604 13.9417
1 1.1989 13.0936 10.6817
1 0.211551 0.212863 10.3257
1 2.48725 13.5441 2.38987
1 1.28392 13.695 3.25024
2 8.46798 10.6327 12.5164
2 7.78786 11.0358 13.8027
2 7.57331 10.336 11.287
2 6.03231 10.4499 11.3986
2 9.54595 8.60287 11.4241
2 9.8258 7.10307 11.6609
2 9.6718 9.61797 12.597
2 10.0841 9.10257 13.9948
2 8.16933 9.00848 10.7756
2 7.19668 7.87832 10.4127
2 6.29158 11.135 13.8864
2 5.39883 10.8928 12.7106
2 5.86395 10.9277 1.32731
2 4.52215 10.2632 1.59481
2 8.45179 10.7337 1.23682
2 9.5512 9.73416 1.32027
2 7.13468 10.7174 2.25278
2 7.09043 9.52413 3.21004
2 3.99132 10.2961 12.8977
2 3.60512 9.89722 0.387243
2 3.83832 9.21399 11.7748
2 3.28432 7.81154 12.0935
2 5.10657 9.3002 10.9405
2 5.70779 8.08385 10.3971
2 3.02525 8.49094 0.67715
2 2.86897 7.46214 13.5608
2 3.49023 7.94966 2.09375
2 3.75768 6.44658 2.31533
2 4.47658 9.06789 2.62171
2 5.70206 8.66289 3.26916
2 3.17014 5.97262 13.7805
2 3.62338 5.43443 1.14305
2 3.70081 5.33465 12.4488
2 4.84378 4.35866 12.5399
2 3.76986 6.50965 11.3629
2 4.93172 6.60634 10.4253
2 4.8044 4.45933 1.23422
2 5.49412 4.09404 13.9591
2 5.68868 4.77765 2.48424
2 7.2737 4.65255 2.35056
2 5.10906 6.09255 3.01879
2 6.07498 7.19783 3.35095
2 7.00281 3.94584 13.8544
2 7.91515 4.15076 1.04996
2 7.48321 4.12055 12.4198
2 8.77792 4.80951 12.1688
2 6.12558 4.38388 11.5259
2 6.19696 5.48338 10.4958
2 9.30959 4.8145 0.81295
2 9.71199 5.17566 13.365
2 9.46296 5.84725 1.96773
2 10.0262 7.22488 1.66566
2 8.18449 5.75585 2.87205
2 7.57914 7.02732 3.3082
2 10.2323 6.59867 13.0803
2 10.3763 7.61304 0.221254
2 8.8058 5.99988 11.1346
2 7.55173 6.41799 10.5045
2 9.53466 8.56117 2.39163
2 8.30864 8.41556 3.24618
120
Atoms. Timestep: 50
1 2.56476 2.89944 13.3483
1 2.1932 3.2656 0.789956
1 1.63363 3.23331 12.2078
1 0.354229 3.86981 12.4562
1 2.69654 1.04594 11.7146
1 2.46982 13.5174 11.4392
1 3.25723 1.51391 13.0376
1 3.30184 0.551481 0.129261
1 1.73941 2.10075 11.2152
1 0.516667 1.64338 10.4944
1 0.849389 3.93616 1.03077
1 13.9581 4.15345 13.9006
1 0.198252 3.41771 2.30157
1 12.6406 3.24839 2.43092
1 2.36643 2.23388 1.90316
1 2.92915 0.875779 1.56876
1 1.18085 2.33884 2.78223
1 0.552768 1.10151 3.37052
1 12.3974 3.99422 13.9594
1 11.7822 3.50861 1.21945
1 11.8418 3.66321 12.5587
1 10.7273 2.63346 12.4718
1 13.0899 3.54168 11.6595
1 13.1969 2.42444 10.6208
1 10.687 2.52821 1.10813
1 10.2498 2.02108 13.7961
1 10.7753 1.56532 2.31859
1 10.4582 0.0673975 2.07481
1 12.0708 2.00874 3.06426
1 13.045 0.920188 3.4084
1 9.92463 0.544891 13.5823
1 10.0387 13.5522 0.659955
1 10.2998 0.186272 12.1267
1 10.873 12.8491 11.7922
1 10.8082 1.4953 11.453
1 12.0452 1.36414 10.5538
1 10.6699 12.1994 0.365477
1 11.0182 11.7941 12.9195
1 11.5632 11.8719 1.53064
1 12.8517 11.1867 1.29247
1 11.4618 12.9915 2.54869
1 12.7188 13.4354 3.31483
1 12.3858 11.1123 12.6679
1 13.2711 10.9405 13.8784
1 13.0531 11.6914 11.4185
1 0.577193 11.8742 11.3414
1 12.1265 12.7972 10.953
1 12.7329 0.0197891 10.4313
1 0.803631 11.0913 13.7954
1 1.46687 11.5815 12.5662
1 1.37424 11.4333 1.18034
1 2.52047 12.3853 1.28845
1 0.135133 11.5213 2.13164
1 14.0491 12.6708 3.1512
1 2.56317 12.5596 12.6222
1 3.04082 13.0575 13.9088
1 1.21511 13.1156 10.6768
1 0.245714 0.165764 10.331
1 2.44421 13.6075 2.3043
1 1.21584 13.7376 3.21082
2 8.47005 10.5698 12.5456
2 7.81346 10.9907 13.7919
2 7.55278 10.2509 11.3479
2 6.03973 10.4381 11.4332
2 9.46571 8.60101 11.4637
2 9.80479 7.11877 11.6862
2 9.6262 9.58771 12.6444
2 10.0756 9.04651 14.0004
2 8.14316 8.95631 10.7514
2 7.20079 7.88264 10.4042
2 6.27117 11.1512 13.8786
2 5.37082 10.9423 12.7102
2 5.83963 10.896 1.30191
2 4.56278 10.2283 1.5841
2 8.40746 10.7189 1.19323
2 9.55282 9.68694 1.32056
2 7.16613 10.5788 2.15055
2 7.0549 9.45591 3.12862
2 4.07142 10.1816 12.968
2 3.65922 9.84085 0.369287
2 3.85792 9.18557 11.799
2 3.32099 7.82957 12.172
2 5.0756 9.34847 10.8622
2 5.70077 8.05631 10.3722
2 3.00896 8.46602 0.694839
2 2.88615 7.49277 13.588
2 3.51082 7.99644 2.03602
2 3.85654 6.51102 2.26118
2 4.4794 9.11263 2.54776
2 5.7319 8.68929 3.29772
2 3.17983 5.95939 13.8296
2 3.64409 5.49457 1.15244
2 3.77215 5.36443 12.5003
2 4.9376 4.38299 12.5984
2 3.79646 6.52753 11.4513
2 4.99717 6.67258 10.4715
2 4.8185 4.49358 1.20966
2 5.48049 4.01691 13.9577
2 5.71073 4.83218 2.4011
2 7.25289 4.64047 2.31926
2 5.11863 6.13454 2.96693
2 6.06006 7.21525 3.3673
2 7.0234 3.89045 13.8595
2 7.8985 4.16947 1.00582
2 7.47054 4.1578 12.4164
2 8.79841 4.8572 12.1484
2 6.16809 4.48991 11.5993
2 6.2362 5.62279 10.59
2 9.21938 4.89054 0.782404
2 9.60464 5.30269 13.377
2 9.48547 5.84299 1.97925
2 9.9863 7.20566 1.62758
2 8.21855 5.75488 2.81777
2 7.56427 7.0086 3.35866
2 10.2673 6.60704 13.0816
2 10.3897 7.54862 0.193605
2 8.85214 5.98919 11.1955
2 7.55863 6.41612 10.499
2 9.4306 8.48959 2.36249
2 8.21759 8.37704 3.22123
120
Atoms. Timestep: 60
1 2.4813 2.82089 13.3724
1 2.08443 3.15925 0.702781
1 1.54852 3.17574 12.2489
1 0.271219 3.85444 12.4988
1 2.6683 1.01979 11.7359
1 2.34813 13.6417 11.572
1 3.15183 1.48357 13.0734
1 3.31616 0.470765 0.173928
1 1.67007 2.03592 11.2513
1 0.493616 1.63191 10.5647
1 0.739978 3.90479 0.956383
1 13.8598 4.26894 13.8297
1 0.13205 3.32365 2.21822
1 12.7226 3.13844 2.30573
1 2.27997 2.15386 1.77489
1 2.8696 0.871161 1.52387
1 1.0561 2.27204 2.74945
1 0.556732 1.09986 3.4074
1 12.4257 4.03233 13.9508
1 11.8655 3.4451 1.13563
1 11.9053 3.52361 12.6216
1 10.8359 2.56119 12.5399
1 13.1152 3.36581 11.7823
1 13.2018 2.31791 10.8458
1 10.7886 2.3996 1.05514
1 10.254 1.98885 13.766
1 10.9222 1.48565 2.16367
1 10.5726 0.103926 2.01462
1 12.161 1.88965 3.00209
1 13.0682 0.886185 3.51763
1 9.91585 0.544434 13.5528
1 10.1194 13.6099 0.656102
1 10.3186 0.185272 12.1438
1 10.9445 12.8881 11.849
1 10.9381 1.41966 11.5719
1 12.105 1.34916 10.736
1 10.7328 12.2605 0.306825
1 11.1157 11.8919 12.9506
1 11.6626 11.9562 1.45691
1 12.9119 11.2916 1.26209
1 11.5631 13.0707 2.48771
1 12.718 13.4343 3.27732
1 12.4583 11.1819 12.7534
1 13.3463 10.8965 13.8992
1 13.0935 11.7899 11.5283
1 0.524221 11.9904 11.482
1 12.1958 12.8042 10.9552
1 12.7401 0.0256425 10.4021
1 0.817753 11.0704 13.8162
1 1.33693 11.6572 12.6217
1 1.30573 11.562 1.14202
1 2.4539 12.512 1.22132
1 0.0934452 11.7421 1.99911
1 14.0335 12.7578 2.98557
1 2.45848 12.6716 12.6954
1 3.03101 13.0343 13.9821
1 1.1064 13.1622 10.7543
1 0.223473 0.199636 10.2605
1 2.29184 13.6671 2.16639
1 1.14401 13.7519 3.08191
2 8.39522 10.4699 12.6257
2 7.79816 11.0139 13.8218
2 7.52546 10.1062 11.4455
2 6.02853 10.3563 11.4617
2 9.33269 8.51378 11.5791
2 9.72466 7.12223 11.7553
2 9.55051 9.47196 12.6995
2 10.0589 9.03618 13.9874
2 8.08587 8.89418 10.7893
2 7.20378 7.85798 10.3083
2 6.3302 11.2173 13.8966
2 5.4394 10.8974 12.779
2 5.90037 10.8554 1.27918
2 4.59336 10.1631 1.46658
2 8.32335 10.5451 1.15643
2 9.43869 9.58273 1.2535
2 7.10118 10.3882 1.98483
2 7.06269 9.3413 3.00587
2 4.18045 10.0741 13.0234
2 3.72787 9.75488 0.36336
2 3.92739 9.14287 11.9379
2 3.34715 7.80734 12.1971
2 5.08664 9.26914 10.8677
2 5.70817 8.05579 10.3222
2 3.07368 8.4454 0.647147
2 2.93505 7.44459 13.5933
2 3.6161 8.0276 1.98722
2 3.95457 6.64067 2.17239
2 4.53337 9.05623 2.52108
2 5.73567 8.6693 3.25255
2 3.21069 5.99977 13.8154
2 3.73724 5.5805 1.09966
2 3.91293 5.46009 12.5679
2 5.04624 4.50364 12.619
2 3.96479 6.60666 11.5573
2 5.11544 6.71249 10.6803
2 4.89721 4.53726 1.17125
2 5.49364 3.95138 13.9458
2 5.78724 4.9481 2.2898
2 7.2123 4.70783 2.2373
2 5.22385 6.21616 2.90705
2 6.08803 7.2001 3.46286
2 6.99389 3.81561 13.8327
2 7.83093 4.23012 0.960957
2 7.43023 4.22319 12.4396
2 8.70008 4.91928 12.2455
2 6.21205 4.68605 11.7165
2 6.25967 5.77978 10.7896
2 9.10737 4.99003 0.725997
2 9.51669 5.34563 13.381
2 9.38399 5.90492 1.86738
2 9.94644 7.22406 1.61507
2 8.13215 5.78138 2.79364
2 7.56521 6.99644 3.41809
2 10.2252 6.66272 13.1183
2 10.3813 7.61765 0.202208
2 8.78975 6.06804 11.201
2 7.57721 6.45018 10.5016
2 9.30124 8.43979 2.22131
2 8.12584 8.3381 3.10679
120
Atoms. Timestep: 70
1 2.39 2.75029 13.3723
1 1.92233 3.07434 0.659973
1 1.55823 3.09396 12.2617
1 0.296634 3.81536 12.461
1 2.58511 1.01346 11.7776
1 2.19425 13.6394 11.6376
1 3.04037 1.44828 13.1391
1 3.36401 0.541398 0.203229
1 1.63299 2.04441 11.3137
1 0.445565 1.64429 10.5775
1 0.68235 3.8425 0.90593
1 13.8644 4.35946 13.8328
1 0.142162 3.23999 2.13049
1 12.7693 3.00015 2.21728
1 2.11017 2.12436 1.76585
1 2.79651 0.858415 1.54143
1 1.03349 2.22641 2.67383
1 0.532717 1.05418 3.43148
1 12.3641 4.06167 13.9159
1 11.8849 3.38868 1.08533
1 11.9757 3.42187 12.6885
1 10.9265 2.45496 12.5989
1 13.0981 3.29507 11.8585
1 13.1913 2.17861 10.9936
1 10.8559 2.37591 1.00619
1 10.2486 1.96716 13.7776
1 11.0924 1.41598 2.09413
1 10.7497 0.0726045 1.90145
1 12.2168 1.81556 2.88575
1 13.0341 0.848683 3.61935
1 9.90348 0.560735 13.5342
1 10.1761 13.6222 0.577692
1 10.3832 0.190565 12.1533
1 11.0282 12.9169 11.9026
1 11.0393 1.38176 11.6624
1 12.177 1.26409 10.839
1 10.8119 12.3164 0.333504
1 11.2697 11.9816 13.0183
1 11.6988 12.0723 1.4499
1 12.9466 11.3844 1.2251
1 11.6187 13.0838 2.43263
1 12.7816 13.4458 3.23055
1 12.5465 11.2878 12.8215
1 13.334 10.8142 13.9188
1 13.1141 11.8611 11.6194
1 0.470262 12.0831 11.5465
1 12.1717 12.8311 10.9937
1 12.6972 0.0138882 10.343
1 0.816313 11.0715 13.8303
1 1.35027 11.732 12.6736
1 1.27013 11.6673 1.09934
1 2.27052 12.6074 1.18496
1 0.114841 11.862 1.88891
1 14.0366 12.88 2.85962
1 2.38981 12.695 12.7635
1 3.0241 13.071 13.9736
1 1.02968 13.2826 10.8885
1 0.179065 0.228845 10.1882
1 2.18396 13.6848 2.08286
1 1.0819 13.7918 2.96336
2 8.31899 10.3677 12.6491
2 7.83746 11.0228 13.8389
2 7.44338 10.0088 11.5184
2 6.07735 10.2423 11.5486
2 9.22972 8.43642 11.6667
2 9.5939 7.10529 11.8269
2 9.42037 9.43005 12.7355
2 10.0196 9.08224 13.9936
2 8.05466 8.84666 10.8797
2 7.22608 7.89481 10.1569
2 6.32462 11.2927 13.9137
2 5.51012 10.7713 12.7987
2 5.90421 10.7747 1.24694
2 4.68527 10.0894 1.49747
2 8.23159 10.391 1.08947
2 9.26907 9.47288 1.16302
2 7.08025 10.2422 1.91005
2 7.00132 9.24364 2.87565
2 4.26216 10.0255 13.0315
2 3.83665 9.73539 0.337206
2 4.0615 9.05561 11.9356
2 3.42302 7.80928 12.1847
2 5.14417 9.22382 11.0006
2 5.6661 8.05963 10.3076
2 3.17431 8.41654 0.619168
2 2.94093 7.44691 13.5427
2 3.71474 7.98834 1.92744
2 4.07995 6.62617 2.12819
2 4.59271 9.02971 2.48926
2 5.77612 8.62062 3.23428
2 3.33681 6.00961 13.7835
2 3.8837 5.63745 1.05739
2 4.0308 5.57731 12.5892
2 5.06925 4.6389 12.6638
2 4.11928 6.64207 11.6901
2 5.25094 6.78701 10.8455
2 4.93862 4.59643 1.12394
2 5.47304 3.97176 13.9259
2 5.81939 5.06887 2.21889
2 7.19175 4.85335 2.15284
2 5.27284 6.25737 2.83329
2 6.08629 7.20661 3.56808
2 6.98727 3.77129 13.8197
2 7.78665 4.27306 0.918559
2 7.3871 4.2936 12.4777
2 8.60835 5.04459 12.256
2 6.23778 4.80307 11.8603
2 6.30896 5.88317 10.9592
2 9.01439 5.04624 0.695503
2 9.48301 5.36284 13.404
2 9.18297 5.98958 1.79317
2 9.88495 7.25154 1.59083
2 8.10008 5.8209 2.76669
2 7.58461 6.98285 3.45012
2 10.1212 6.66978 13.1378
2 10.381 7.63431 0.242959
2 8.71351 6.07572 11.2587
2 7.53658 6.45639 10.4968
2 9.23271 8.41319 2.09924
2 8.11586 8.29824 2.9699
120
Atoms. Timestep: 80
1 2.31424 2.7405 13.4092
1 1.87301 3.00708 0.708032
1 1.54153 3.16084 12.2587
1 0.325375 3.8645 12.4341
1 2.48516 0.995957 11.8604
1 2.17217 13.671 11.6874
1 3.04153 1.49657 13.1192
1 3.34285 0.574165 0.209063
1 1.64264 2.00685 11.2327
1 0.474911 1.66271 10.5273
1 0.71116 3.85695 0.912954
1 13.9039 4.31964 13.8057
1 0.110345 3.18944 2.10817
1 12.7349 2.9699 2.15825
1 2.09575 2.10913 1.75072
1 2.76873 0.922688 1.56857
1 1.00867 2.22132 2.74514
1 0.537423 1.09209 3.41164
1 12.3481 4.07034 13.9461
1 11.8574 3.41974 1.13607
1 11.9726 3.42768 12.6616
1 10.9549 2.42135 12.6086
1 13.1412 3.27335 11.8299
1 13.2342 2.19376 10.9773
1 10.7957 2.3698 1.04233
1 10.2512 2.00629 13.8008
1 11.1036 1.39315 2.01945
1 10.831 0.0630778 1.80139
1 12.234 1.80474 2.87362
1 13.0446 0.8988 3.59481
1 9.90683 0.521845 13.5208
1 10.1725 13.6051 0.604194
1 10.4133 0.157473 12.1795
1 11.0286 12.9206 11.9653
1 11.0301 1.33046 11.6555
1 12.1485 1.2396 10.8321
1 10.8812 12.345 0.341383
1 11.3105 12.0546 13.0648
1 11.737 11.9991 1.44263
1 12.9435 11.3648 1.24338
1 11.6513 13.056 2.49054
1 12.7898 13.4335 3.23124
1 12.523 11.2997 12.8272
1 13.3296 10.8306 13.9157
1 13.094 11.8859 11.6212
1 0.482371 12.1185 11.5569
1 12.1729 12.7973 10.9844
1 12.6177 -0.0379466 10.2862
1 0.84396 11.073 13.835
1 1.36465 11.6779 12.6533
1 1.24328 11.6572 1.08896
1 2.28819 12.6698 1.13995
1 0.0894603 11.8393 1.89854
1 14.0187 12.8639 2.82068
1 2.46376 12.7042 12.6954
1 2.97022 13.1298 13.979
1 0.98245 13.2853 10.9041
1 0.16112 0.222334 10.2165
1 2.16785 13.7488 2.12302
1 1.08368 13.8049 2.98464
2 8.31135 10.3892 12.6475
2 7.78006 11.0217 13.7795
2 7.48664 10.0033 11.5532
2 6.1002 10.1578 11.6418
2 9.18504 8.46368 11.6693
2 9.49815 7.09094 11.879
2 9.38932 9.41397 12.7171
2 9.97877 9.04781 13.9469
2 8.00866 8.82999 10.8594
2 7.23345 7.90475 10.0846
2 6.29557 11.2505 13.8827
2 5.50523 10.7661 12.7988
2 5.91298 10.7537 1.29754
2 4.68778 10.0801 1.48689
2 8.15514 10.3906 1.03543
2 9.23032 9.44409 1.12572
2 7.09718 10.2354 1.9172
2 7.02586 9.17903 2.83481
2 4.29031 10.0284 13.0293
2 3.86598 9.69551 0.340731
2 4.07625 9.09626 11.9419
2 3.49152 7.83278 12.1681
2 5.25288 9.20718 11.0394
2 5.73224 8.09847 10.3154
2 3.2391 8.41044 0.614716
2 2.96258 7.49485 13.5458
2 3.77087 7.93775 1.90245
2 4.10885 6.58244 2.07846
2 4.62375 8.96508 2.50202
2 5.78633 8.62763 3.27506
2 3.41363 6.06284 13.7973
2 3.92708 5.64831 1.02406
2 4.06605 5.60078 12.6182
2 5.08408 4.62099 12.6934
2 4.17421 6.69149 11.6799
2 5.28417 6.83582 10.8815
2 4.95085 4.60886 1.12315
2 5.47279 4.04713 13.9422
2 5.80743 5.08044 2.18241
2 7.20949 4.91117 2.09914
2 5.26826 6.21786 2.89891
2 6.0667 7.17848 3.57217
2 6.9818 3.81018 13.8367
2 7.7887 4.25176 0.932273
2 7.41429 4.31417 12.4924
2 8.60945 5.0151 12.3088
2 6.2248 4.84775 11.8768
2 6.29898 5.89818 10.9777
2 9.00168 5.05575 0.709333
2 9.44854 5.35327 13.4121
2 9.13712 6.01746 1.74631
2 9.81895 7.22009 1.57187
2 8.10297 5.8843 2.76794
2 7.60316 7.02026 3.45916
2 10.0919 6.65533 13.1561
2 10.3593 7.57711 0.195628
2 8.67804 6.09064 11.2578
2 7.53916 6.42666 10.4899
2 9.18549 8.39908 2.12507
2 8.10052 8.28055 2.98391
120
Atoms. Timestep: 90
1 2.37423 2.77331 13.3864
1 1.91699 3.10804 0.713495
1 1.59172 3.23271 12.1861
1 0.313006 3.92874 12.4217
1 2.48138 1.07783 11.8628
1 2.21489 13.6636 11.6199
1 3.07874 1.53416 13.1385
1 3.25726 0.600266 0.170644
1 1.68613 2.11212 11.1804
1 0.491112 1.63524 10.4091
1 0.709887 3.90283 0.955413
1 13.8566 4.23147 13.8284
1 0.105542 3.25734 2.16153
1 12.6914 3.04529 2.25032
1 2.16801 2.19394 1.84654
1 2.84465 0.928549 1.57339
1 1.0431 2.31576 2.81716
1 0.518521 1.09597 3.44946
1 12.4133 4.05372 13.9325
1 11.7743 3.53506 1.15099
1 11.9449 3.50666 12.6212
1 10.895 2.48338 12.5539
1 13.122 3.37649 11.7599
1 13.2075 2.25258 10.7822
1 10.6714 2.46497 1.07607
1 10.2007 1.96702 13.767
1 11.0297 1.42596 2.09189
1 10.7861 0.0146955 1.87935
1 12.1394 1.86689 2.90802
1 13.0531 0.876224 3.47633
1 9.91283 0.515861 13.5859
1 10.1448 13.5734 0.626147
1 10.3506 0.166011 12.2016
1 10.9972 12.8825 11.9227
1 10.9722 1.37709 11.5922
1 12.1177 1.28534 10.6868
1 10.8586 12.3237 0.375713
1 11.2611 11.9716 13.0381
1 11.6714 11.8837 1.543
1 12.9445 11.1896 1.28113
1 11.5859 13.0107 2.52618
1 12.7517 13.4375 3.30116
1 12.4906 11.2272 12.7959
1 13.3651 10.902 13.8848
1 13.0776 11.7848 11.572
1 0.504223 12.0364 11.5123
1 12.0927 12.7545 10.9384
1 12.6523 -0.0574691 10.2715
1 0.844794 11.0556 13.7771
1 1.42811 11.5837 12.5504
1 1.32783 11.6309 1.13128
1 2.34875 12.6351 1.20122
1 0.145623 11.701 1.99498
1 14.0491 12.8002 2.98301
1 2.56716 12.64 12.669
1 2.96325 13.1632 13.961
1 1.04775 13.2135 10.8364
1 0.14096 0.196876 10.2704
1 2.29213 13.705 2.18406
1 1.12342 13.7997 3.09082
2 8.37651 10.5199 12.5569
2 7.74879 10.9928 13.7977
2 7.5218 10.0555 11.4798
2 6.12667 10.2046 11.6231
2 9.22628 8.46566 11.6011
2 9.51344 7.10653 11.8418
2 9.47969 9.44449 12.6489