  LAMMPS description
 
     120   atoms
       0   bonds
       0   angles
       0   dihedrals
 
       2   atom types
       0   bond types
       0   angle types
       0   dihedral types
 
       0   14.000000     xlo xhi
       0   14.000000     ylo yhi
       0   14.000000     zlo zhi
  0.0000000      0.0000000      0.0000000     xy xz yz

  Masses

       1   12.010000
       2   12.010000

   Atoms

1	1	1	0	2.34	2.6	-0.594
2	1	1	0	1.932411	2.933365	0.705451
3	1	1	0	1.580368	3.083897	-1.73059
4	1	1	0	0.399467	3.82203	-1.481692
5	1	1	0	2.449423	0.973509	-2.084718
6	1	1	0	2.113944	-0.374888	-2.286676
7	1	1	0	3.086831	1.378125	-0.849817
8	1	1	0	3.336869	0.449838	0.188256
9	1	1	0	1.647797	2.015067	-2.727119
10	1	1	0	0.534648	1.640854	-3.52878
11	1	1	0	0.772569	3.781382	0.928341
12	1	1	0	-0.011861	4.296502	-0.140594
13	1	1	0	0.20559	3.098199	2.075599
14	1	1	0	-1.191131	2.932479	2.155623
15	1	1	0	2.190146	2.036538	1.792432
16	1	1	0	2.75757	0.779314	1.492653
17	1	1	0	1.084115	2.154037	2.751463
18	1	1	0	0.537181	1.032677	3.447316
19	1	1	0	-1.479049	4.07947	-0.048174
20	1	1	0	-2.03758	3.450969	1.104819
21	1	1	0	-1.94394	3.505906	-1.329556
22	1	1	0	-2.986758	2.556221	-1.420824
23	1	1	0	-0.777123	3.286697	-2.133266
24	1	1	0	-0.714939	2.260819	-3.105707
25	1	1	0	-3.095945	2.426679	1.014125
26	1	1	0	-3.653719	2.025808	-0.22968
27	1	1	0	-2.847967	1.45537	2.036971
28	1	1	0	-3.183467	0.107009	1.834931
29	1	1	0	-1.743668	1.823876	2.914857
30	1	1	0	-0.940122	0.861433	3.59516
31	1	1	0	-4.070896	0.630736	-0.438029
32	1	1	0	-3.820995	-0.297496	0.600034
33	1	1	0	-3.491481	0.301169	-1.742379
34	1	1	0	-2.924158	-0.956061	-2.04229
35	1	1	0	-2.879017	1.464294	-2.351209
36	1	1	0	-1.797381	1.346676	-3.247208
37	1	1	0	-3.074331	-1.519176	0.343934
38	1	1	0	-2.666583	-1.852912	-0.955355
39	1	1	0	-2.314461	-2.003263	1.480564
40	1	1	0	-1.133555	-2.741505	1.231874
41	1	1	0	-2.381787	-0.93456	2.477249
42	1	1	0	-1.268645	-0.560435	3.278976
43	1	1	0	-1.506633	-2.700962	-1.178069
44	1	1	0	-0.722163	-3.216054	-0.109154
45	1	1	0	-0.939588	-2.017723	-2.325292
46	1	1	0	0.457137	-1.852032	-2.405315
47	1	1	0	-1.818078	-1.073571	-3.001219
48	1	1	0	-1.271165	0.047764	-3.697082
49	1	1	0	0.745045	-2.999034	-0.201554
50	1	1	0	1.303609	-2.370517	-1.354536
51	1	1	0	1.209945	-2.425442	1.079818
52	1	1	0	2.252788	-1.475762	1.171085
53	1	1	0	0.043093	-2.206277	1.883518
54	1	1	0	-0.019041	-1.180395	2.855956
55	1	1	0	2.36198	-1.346219	-1.263844
56	1	1	0	2.919772	-0.945305	-0.02005
57	1	1	0	1.009665	-0.743425	-3.164548
58	1	1	0	0.206134	0.218988	-3.844909
59	1	1	0	2.145082	-0.38383	2.10148
60	1	1	0	1.063413	-0.266236	2.99745
61	2	2	0	8.303722	10.452054	-1.350844
62	2	2	0	7.746103	11.077979	-0.196041
63	2	2	0	7.45655	9.936166	-2.402128
64	2	2	0	6.059746	10.101562	-2.319857
65	2	2	0	9.113071	8.458914	-2.28771
66	2	2	0	9.446399	7.109765	-2.086877
67	2	2	0	9.36231	9.42788	-1.263013
68	2	2	0	9.920885	9.024513	-0.020288
69	2	2	0	8.00852	8.828998	-3.16476
70	2	2	0	7.203705	7.867862	-3.845728
71	2	2	0	6.279325	11.29534	-0.102355
72	2	2	0	5.493784	10.783323	-1.171543
73	2	2	0	5.869453	10.817734	1.237515
74	2	2	0	4.687821	10.080969	1.486594
75	2	2	0	8.212347	10.502949	1.084205
76	2	2	0	9.254682	9.552414	1.172563
77	2	2	0	7.046289	10.283012	1.889067
78	2	2	0	6.984292	9.256025	2.860458
79	2	2	0	4.333441	9.935438	-0.949256
80	2	2	0	3.926701	9.599509	0.349816
81	2	2	0	4.073927	9.041333	-2.038224
82	2	2	0	3.507259	7.783767	-1.739214
83	2	2	0	5.180106	9.159777	-2.997083
84	2	2	0	5.726613	8.039466	-3.69488
85	2	2	0	3.180189	8.377595	0.604502
86	2	2	0	2.928807	7.451545	-0.435037
87	2	2	0	3.819512	7.970473	1.83743
88	2	2	0	4.152793	6.621336	2.038313
89	2	2	0	4.621451	9.010736	2.481936
90	2	2	0	5.734508	8.635486	3.283459
91	2	2	0	3.345059	6.055817	-0.229095
92	2	2	0	3.903555	5.652393	1.013624
93	2	2	0	4.011282	5.527984	-1.421916
94	2	2	0	5.053574	4.577433	-1.333542
95	2	2	0	4.119191	6.621681	-2.350399
96	2	2	0	5.200206	6.740312	-3.246657
97	2	2	0	4.962088	4.628166	1.101465
98	2	2	0	5.519736	4.002277	-0.053335
99	2	2	0	5.809257	5.144126	2.152692
100	2	2	0	7.206049	4.978777	2.070351
101	2	2	0	5.257308	6.251277	2.91537
102	2	2	0	6.062122	7.212415	3.596339
103	2	2	0	6.986509	3.784865	-0.147051
104	2	2	0	7.772045	4.296909	0.922121
105	2	2	0	7.396375	4.262525	-1.486909
106	2	2	0	8.578013	4.999292	-1.736004
107	2	2	0	6.219571	4.797318	-2.138432
108	2	2	0	6.281553	5.824336	-3.109769
109	2	2	0	8.932381	5.144792	0.699845
110	2	2	0	9.339128	5.480738	-0.599221
111	2	2	0	9.191866	6.038943	1.788769
112	2	2	0	9.758491	7.296512	1.489745
113	2	2	0	8.085674	5.92055	2.74757
114	2	2	0	7.539203	7.040835	3.445399
115	2	2	0	10.08565	6.702648	-0.853912
116	2	2	0	10.337014	7.628722	0.185616
117	2	2	0	8.644435	6.069516	-2.731372
118	2	2	0	7.531332	6.444836	-3.532792
119	2	2	0	9.146622	8.458617	2.100945
120	2	2	0	8.06561	8.339989	2.99722

   Bonds


   Angles


   Dihedrals


