LAMMPS (19 Feb 2013)
###########################################################################
#x0
###########################################################################
units 			metal
atom_style		full
read_data		fort.26.nonbonded
  0 = max bonds/atom
  0 = max angles/atom
  0 = max dihedrals/atom
  triclinic box = (0 0 0) to (14 14 14) with tilt (0 0 0)
  1 by 1 by 1 MPI processor grid
  120 atoms
  0 bonds
  0 angles
  0 dihedrals
  0 = max # of 1-2 neighbors
  0 = max # of 1-3 neighbors
  0 = max # of 1-4 neighbors
  1 = max # of special neighbors
group         		C type = 1
60 atoms in group C
###########################################################################
#OLPS
###########################################################################

################################################################################
#### Pair potentials
################################################################################
#pair_style hybrid/overlay tersoff lj/cut 12.0
#pair_coeff * * tersoff C.tersoff 1 2
#pair_coeff 1 2 lj/cut 0.0700000000 3.5500000000
#special_bonds lj 0.0 0.0 0.0 coul 0.0 0.0 0.0

pair_style tersoff
pair_coeff * * C.tersoff 1 2

#pair_style lj/cut 12.0
#pair_coeff 1 1 0.0700000000 3.5500000000
#special_bonds lj 0.0 0.0 0.0 coul 0.0 0.0 0.0
###########################################################################

###########################################################################
#run parameters
###########################################################################
variable   	dt 		equal 0.001
variable 	T_run 		equal 300
variable 	seed 		equal 11111

velocity 		all create ${T_run} ${seed} rot yes dist gaussian
velocity 		all create 300 ${seed} rot yes dist gaussian
velocity 		all create 300 11111 rot yes dist gaussian

#--------------------------------------------------------------------------
#nvtanneal
#--------------------------------------------------------------------------
fix 		1 all nvt temp 400 400 1.0
dump		1 all xyz 10 dump.xyz
dump_modify 	1 sort id
compute 	myDis all msd
thermo_style  	custom step temp press etotal pe ke vol c_myDis[4]
thermo			10
timestep		${dt}
timestep		0.0010000000000000000208
#run			500000
run			10000
Memory usage per processor = 3.6359 Mbytes
Step Temp Press TotEng PotEng KinEng Volume myDis[4] 
       0          300    95440.884   -786.35422    -790.9688    4.6145872         2744 1.2476238e-30 
      10    758.96246    61113.529   -786.35877    -798.0331    11.674328         2744 0.0066193419 
      20    1101.8009   -11399.363   -786.36285   -803.31071    16.947855         2744  0.041196113 
      30    514.48597   -71951.726   -786.34992   -794.26372    7.9138012         2744  0.098477125 
      40    237.87108   -87602.593   -786.34786   -790.00678    3.6589228         2744   0.11868692 
      50    741.15555   -55391.681   -786.36356   -797.76399    11.400423         2744  0.080384886 
      60      1108.05    14119.795   -786.38894   -803.43292    17.043978         2744  0.029127317 
      70    512.63757    79477.672   -786.38878   -794.27415    7.8853692         2744  0.010437839 
      80    342.50692     93535.01   -786.39275   -791.66117    5.2684268         2744 0.0090936909 
      90    946.83055    43178.376   -786.41873   -800.98284    14.564107         2744  0.018716909 
     100    1003.1903   -30454.739   -786.44202   -801.87305    15.431031         2744  0.062540399 
     110    363.87481   -81346.264   -786.43859    -792.0357    5.5971068         2744   0.11551096 
     120    348.90536   -83330.022   -786.44252   -791.80937    5.3668473         2744    0.1170208 
     130    953.92154   -38245.787   -786.47304   -801.14622     14.67318         2744  0.067616891 
     140    970.82239    32967.666   -786.50549   -801.43863    14.933149         2744  0.025745507 
     150    343.82463     89295.36   -786.51397   -791.80266    5.2886958         2744  0.018602104 
     160    541.70001    85980.673    -786.5375   -794.86991    8.3324064         2744  0.024237765 
     170     1097.296    23006.914   -786.57909   -803.45765     16.87856         2744  0.047546417 
     180    754.05306   -48832.982   -786.59983   -798.19864    11.598812         2744    0.1007442 
     190    267.17244   -86536.417   -786.60401   -790.71365     4.109635         2744   0.13993351 
     200    544.10781   -75000.645   -786.62383   -794.99327    8.3694431         2744   0.12241161 
     210    1031.6967   -19767.646   -786.66938   -802.53889    15.869514         2744  0.070807739 
     220    737.60841    53114.592   -786.70538   -798.05124    11.345861         2744  0.039414416 
     230    282.05658    95139.829   -786.71343   -791.05201    4.3385822         2744  0.036612887 
     240    724.28937    72907.851    -786.7522   -797.89319    11.140988         2744  0.046764578 
     250    1037.4498    1423.0898   -786.80992   -802.76793    15.958008         2744  0.083125873 
     260    525.54451   -63771.436   -786.83508   -794.91898    8.0839032         2744    0.1379176 
     270    295.86915   -86616.516   -786.85033   -791.40138    4.5510466         2744   0.15864427 
     280    715.15711   -62535.041   -786.88605   -797.88657    11.000516         2744    0.1271777 
     290    1004.6729   -714.75031    -786.9481   -802.40194    15.453835         2744  0.082856005 
     300    553.22622     68407.29   -786.99003   -795.49973    8.5097021         2744  0.065853479 
     310    405.89045    96203.395    -787.0126   -793.25599    6.2433895         2744  0.068960115 
     320    850.82512    54948.667   -787.05519   -800.14255    13.087356         2744   0.08659409 
     330    930.10504   -19939.441   -787.11613   -801.42296    14.306836         2744   0.13114866 
     340    396.46722   -74410.417   -787.14013   -793.23857    6.0984418         2744   0.17994217 
     350    391.07349   -83931.627   -787.15969   -793.17516    6.0154757         2744   0.18248503 
     360     824.5364   -47458.462   -787.20633   -799.88931    12.682984         2744   0.14068718 
     370    872.72777    19292.113   -787.27131   -800.69557    13.424261         2744   0.10292999 
     380    422.23546    82350.458    -787.3068   -793.80161    6.4948078         2744  0.096456369 
     390    541.63609      91256.8   -787.34886   -795.68029    8.3314232         2744    0.1073708 
     400    937.50038    33741.088   -787.40175   -801.82234    14.420591         2744   0.13619512 
     410    723.70939    -38774.19   -787.44997   -798.58204    11.132067         2744   0.18654946 
     420    331.64007   -81221.557     -787.473   -792.57427    5.1012734         2744   0.22354751 
     430    532.58292   -76812.838   -787.50583     -795.698    8.1921676         2744   0.21144892 
     440    865.25929   -30690.051   -787.56258   -800.87197    13.309381         2744   0.16924952 
     450    725.47134     39492.24   -787.61558   -798.77475    11.159169         2744   0.14037407 
     460    412.67178    90779.357   -787.64771   -793.99541    6.3476996         2744   0.13864586 
     470    663.57138    79650.832   -787.68733   -797.89436    10.207027         2744   0.15529472 
     480    890.69198    11917.258   -787.73594   -801.43653    13.700586         2744   0.19294014 
     490    569.64137   -54747.017   -787.77665   -796.53885    8.7621992         2744   0.24252023 
     500    354.61217    -82897.14   -787.80124   -793.25587    5.4546292         2744   0.26364637 
     510    650.45181   -67316.712   -787.83796   -797.84318    10.005222         2744    0.2395951 
     520    839.11031   -12759.936   -787.89118   -800.79834    12.907159         2744   0.20150243 
     530    619.53736    57505.347   -787.93506   -797.46475    9.5296972         2744   0.18414692 
     540    437.38235    95267.823   -787.95898   -794.68677    6.7277965         2744   0.19143918 
     550    736.63259    62866.507   -788.00357   -799.33442    11.330851         2744   0.21670827 
     560    825.40621   -9413.4339   -788.05071   -800.74708    12.696363         2744   0.26108335 
     570    451.65733   -66546.375   -788.07349   -795.02086    6.9473738         2744   0.30495791 
     580    414.09005    -82383.06   -788.09807   -794.46759    6.3695154         2744   0.31009783 
     590    712.76534   -53906.374   -788.13737   -799.10109    10.963726         2744   0.27713641 
     600    799.91864    7688.0305    -788.1856   -800.48991    12.304314         2744   0.24322134 
     610    522.82783    73717.156   -788.21516   -796.25728    8.0421153         2744   0.23532416 
     620    458.38977    92021.298    -788.2348   -795.28573    7.0509318         2744   0.25056776 
     630    788.81729    42739.835   -788.28192   -800.41548    12.133554         2744   0.28140829 
     640    716.42804   -28863.089   -788.32147   -799.34153    11.020065         2744   0.32834611 
     650    435.01906   -74832.146   -788.34418   -795.03562    6.6914445         2744     0.364282 
     660    482.44197   -77864.166   -788.36713   -795.78804    7.4209017         2744   0.35978572 
     670    734.15623   -39277.604   -788.40551   -799.69827     11.29276         2744   0.32566642 
     680    756.97385    28252.154   -788.45287   -800.09661    11.643739         2744   0.29838769 
     690    481.80288    85327.976   -788.47995   -795.89102    7.4110714         2744   0.29901592 
     700    539.92739    82205.519   -788.49596    -796.8011      8.30514         2744   0.31985504 
     710    800.38599    21558.184   -788.53254   -800.84405    12.311503         2744   0.35544041 
     720    640.89151   -44860.479   -788.56962   -798.42778    9.8581658         2744   0.39964382 
     730    409.68109    -79178.43   -788.58916   -794.89086     6.301697         2744   0.42365009 
     740    546.82497   -70063.773   -788.61544   -797.02668    8.4112383         2744    0.4099023 
     750    739.86162    -21975.72   -788.64886   -800.02937     11.38052         2744     0.377231 
     760    690.61119    47565.367   -788.69169   -799.31464    10.622952         2744   0.35833558 
     770    442.79582    91350.464   -788.71164    -795.5227    6.8110663         2744   0.36754634 
     780      620.288    68212.363   -788.73785   -798.27909    9.5412435         2744   0.39484805 
     790    787.61429    652.48419   -788.77813   -800.89318    12.115049         2744   0.43698851 
     800    553.40869   -58199.445   -788.80409    -797.3166    8.5125089         2744   0.47940654 
     810    409.31429   -79914.787   -788.82251   -795.11856    6.2960549         2744   0.49285443 
     820    575.71944   -59223.787   -788.85016   -797.70585    8.8556918         2744   0.47099221 
     830    773.11124    -2596.053    -788.8878   -800.77977    11.891964         2744   0.43896385 
     840    618.74398     64217.84   -788.92408   -798.44157    9.5174934         2744   0.42874445 
     850    430.39844    90298.004   -788.94289   -795.56326    6.6203704         2744   0.44407681 
     860    674.92496    50059.881   -788.97548   -799.35715    10.381667         2744   0.47498218 
     870    729.03803   -17770.811   -789.01346   -800.22749    11.214032         2744   0.51844989 
     880    507.90093   -67693.753   -789.04065   -796.85316    7.8125104         2744    0.5553346 
     890    432.90216   -77211.839   -789.06076   -795.71964    6.6588825         2744    0.5604011 
     900     632.6911   -45646.223   -789.09248   -798.82451    9.7320274         2744   0.53434017 
     910    795.26208    18220.087   -789.13716   -801.36985    12.232687         2744   0.50720391 
     920    527.68468    78070.805   -789.16892   -797.28574    8.1168232         2744   0.50752428 
     930    450.01874    83435.845   -789.18258   -796.10475     6.922169         2744   0.52909017 
     940    718.87772    29894.161   -789.22044   -800.27819    11.057746         2744   0.56191279 
     950    676.24272   -35326.096   -789.25263   -799.65457    10.401937         2744   0.60227104 
     960    447.55758   -74066.603   -789.27584   -796.16015    6.8843115         2744   0.63089497 
     970    438.90873   -70979.382   -789.29491   -796.04619    6.7512753         2744   0.62555442 
     980    670.50952   -27588.846    -789.3293   -799.64305    10.313749         2744   0.59340501 
     990    742.84408    40544.364   -789.38271   -800.80911    11.426396         2744   0.57046138 
    1000    457.13787    86912.704   -789.41068   -796.44236    7.0316752         2744   0.57688013 
    1010    535.66308    69627.499   -789.43706   -797.67661    8.2395466         2744   0.60277566 
    1020    751.23659    7361.0091   -789.47066   -801.02615    11.555489         2744   0.63960851 
    1030    630.12789   -51363.486   -789.50551   -799.19811    9.6926003         2744    0.6782705 
    1040      396.847   -76135.363   -789.52632    -795.6306    6.1042836         2744   0.69552291 
    1050    465.94009   -59401.182   -789.54762   -796.71469    7.1670705         2744   0.67944243 
    1060     734.6304   -6668.3002   -789.59148   -800.89153    11.300053         2744   0.64619358 
    1070    651.43614    58226.367   -789.63402   -799.65439    10.020363         2744   0.62954695 
    1080    412.70316    85717.432   -789.66115   -796.00934    6.3481824         2744   0.64037461 
    1090    587.09155    50841.339   -789.69222   -798.72283    9.0306171         2744   0.66713157 
    1100    709.43022   -11555.878   -789.72547   -800.63789    10.912425         2744   0.70291983 
    1110    545.71453   -61335.351   -789.75759   -798.15175    8.3941576         2744   0.73622195 
    1120    361.11844   -75476.227   -789.78011   -795.33482    5.5547084         2744   0.74484285 
    1130    531.94741   -47771.136    -789.8086   -797.99099    8.1823923         2744   0.72219386 
    1140    784.49005     13194.48    -789.8583   -801.92529    12.066992         2744    0.6926509 
    1150    560.20097    71697.313   -789.89636   -798.51335    8.6169874         2744   0.68865332 
    1160     392.5256    80149.655   -789.92175   -795.95956     6.037812         2744   0.70770656 
    1170    623.19249    33121.157   -789.95131   -799.53723    9.5859203         2744   0.73665322 
    1180    691.41265   -28038.683   -789.98811   -800.62339     10.63528         2744   0.77222058 
    1190    494.88023   -68279.245   -790.02283   -797.63506    7.6122265         2744   0.80109764 
    1200    349.50453   -70714.129   -790.04153    -795.4176    5.3760637         2744   0.80259286 
    1210    635.22818    -32453.18   -790.07897   -799.85002    9.7710527         2744   0.77385025 
    1220    756.19456    31568.855   -790.12768   -801.75944    11.631752         2744   0.74761902 
    1230    467.82968    79300.344   -790.16255   -797.35869    7.1961362         2744   0.75105621 
    1240    391.38207    69782.352   -790.17766   -796.19788    6.0202223         2744     0.775204 
    1250    683.00309    15569.288   -790.21615   -800.72208    10.505924         2744   0.80589891 
    1260    693.74671   -42212.673    -790.2601   -800.93128    10.671182         2744   0.84106378 
    1270     375.6263   -71882.791   -790.28381   -796.06168    5.7778677         2744   0.86727119 
    1280    371.11365    -62755.05   -790.30328   -796.01174    5.7084543         2744   0.86280385 
    1290    708.21102   -15482.102   -790.34871   -801.24239    10.893672         2744   0.83303535 
    1300    712.53644     48110.83   -790.40274   -801.36294    10.960205         2744   0.81369519 
    1310     405.7203    80805.393   -790.43224   -796.67301    6.2407723         2744   0.82286953 
    1320    470.55372    55828.354   -790.44763   -797.68567    7.2380372         2744   0.84837119 
    1330    714.14974   -1345.4729    -790.4822   -801.46722    10.985021         2744   0.88163643 
    1340    602.92848   -52512.988   -790.52087   -799.79509      9.27422         2744   0.91780033 
    1350    325.55021   -73239.712   -790.54352   -795.55112    5.0075995         2744   0.93729189 
    1360    441.69291   -52226.523   -790.56727   -797.36137    6.7941015         2744   0.92350455 
    1370    790.21635    3403.2204   -790.62064   -802.77571    12.155074         2744    0.8935976 
    1380    606.43995    61639.882   -790.66483   -799.99306    9.3282333         2744   0.88456024 
    1390    306.77556    78359.138   -790.67337   -795.39218    4.7188086         2744   0.90009126 
    1400    559.91071    40801.562   -790.70849   -799.32101    8.6125226         2744    0.9261243 
    1410    744.94198   -17922.159   -790.75324   -802.21191    11.458666         2744   0.96235369 
    1420    492.75578   -61763.693   -790.78271   -798.36226    7.5795483         2744    1.0005382 
    1430    279.79141   -70164.187   -790.79783   -795.10157    4.3037396         2744    1.0138089 
    1440     550.7482    -38543.91   -790.82743   -799.29901    8.4715852         2744   0.99043544 
    1450    780.69744    21582.888   -790.88031   -802.88896    12.008655         2744   0.96141344 
    1460    455.40479    71010.527   -790.91279   -797.91781     7.005017         2744    0.9606158 
    1470    301.56527    70862.813   -790.91982   -795.55848    4.6386641         2744   0.98096731 
    1480    649.48634    25064.675   -790.96193    -800.9523    9.9903711         2744    1.0078624 
    1490    692.39907   -32474.072   -791.00553   -801.65599    10.650453         2744    1.0463396 
    1500    360.32372    -67633.87    -791.0331   -796.57559    5.5424841         2744    1.0834675 
    1510     328.8801   -64470.019    -791.0533   -796.11212    5.0588197         2744    1.0886841 
    1520    691.78997   -22747.938   -791.09451   -801.73559    10.641084         2744    1.0612978 
    1530    735.13405     37835.51   -791.14321   -802.45101      11.3078         2744    1.0380723 
    1540    336.98536     75224.54   -791.16625   -796.34974    5.1834944         2744    1.0424975 
    1550      416.185    60582.638   -791.18933   -797.59107    6.4017399         2744    1.0634737 
    1560    740.63105    8145.7713   -791.22607   -802.61843    11.392355         2744    1.0964724 
    1570    628.73348   -45047.932   -791.26302   -800.93417    9.6711516         2744    1.1398938 
    1580    283.91135   -70598.419   -791.27843   -795.64554    4.3671123         2744    1.1711334 
    1590    421.58392    -55357.35   -791.30158   -797.78637    6.4847858         2744     1.165182 
    1600    746.13349   -5458.0322    -791.3421   -802.81909    11.476994         2744    1.1357234 
    1610    583.45543    52396.209   -791.37943   -800.35411    8.9746864         2744    1.1190172 
    1620    264.58683    75592.854   -791.39887   -795.46873    4.0698634         2744    1.1273987 
    1630    537.80545    47902.456   -791.43434   -799.70684    8.2725004         2744     1.148909 
    1640    759.11503   -8331.3123   -791.47498   -803.15166    11.676675         2744    1.1882094 
    1650    479.81799   -55692.685   -791.50448   -798.88502    7.3805398         2744    1.2373118 
    1660    253.51587   -69403.555   -791.51571   -795.41528    3.8995703         2744    1.2613741 
    1670    525.49984   -43647.205   -791.54209    -799.6253    8.0832161         2744    1.2435635 
    1680     781.5474    11254.028   -791.59369   -803.61542    12.021729         2744    1.2130146 
    1690    457.96829    62794.927   -791.62642   -798.67086    7.0444487         2744    1.2042767 
    1700    286.67839    72081.897   -791.63697   -796.04665    4.4096748         2744    1.2159189 
    1710    664.94795    33180.072   -791.67777   -801.90597    10.228201         2744    1.2411797 
    1720    688.17047   -23985.805   -791.71273   -802.29814    10.585409         2744    1.2870977 
    1730    362.04177   -63085.666   -791.73559    -797.3045     5.568911         2744     1.335319 
    1740     299.2711   -65332.766   -791.74799   -796.35137    4.6033752         2744    1.3498932 
    1750    667.05224   -29177.454   -791.78512   -802.04569    10.260569         2744    1.3248447 
    1760    670.18497    27749.344   -791.82816   -802.13692    10.308757         2744    1.2966803 
    1770    341.39441    69815.345    -791.8538   -797.10511    5.2513143         2744    1.2915688 
    1780    384.37053    64296.482   -791.87086   -797.78323    5.9123711         2744    1.3070546 
    1790     708.1652    17073.991   -791.90755   -802.80052    10.892967         2744    1.3411456 
    1800    602.24122   -37388.378   -791.94093   -801.20458    9.2636487         2744     1.393341 
    1810    270.29473   -67784.249   -791.95701   -796.11467     4.157662         2744    1.4360899 
    1820    386.61855   -57770.513   -791.97415    -797.9211      5.94695         2744    1.4376097 
    1830    717.64575     -13694.5    -792.0197    -803.0585    11.038796         2744    1.4074149 
    1840    569.28772    43000.714   -792.05333   -800.81009    8.7567594         2744    1.3834224 
    1850    263.52011    72999.499   -792.06784    -796.1213    4.0534551         2744    1.3827031 
    1860     489.2114     53877.68   -792.09237    -799.6174    7.5250288         2744    1.4021913 
    1870    689.12645    507.73639   -792.12736   -802.72747    10.600114         2744    1.4473117 
    1880    446.61539   -49525.136    -792.1561   -799.02592    6.8698188         2744    1.5050999 
    1890    236.17397   -67686.881   -792.17102   -795.80383     3.632818         2744    1.5389713 
    1900    491.05398   -47672.218   -792.19699   -799.75036    7.5533714         2744    1.5270931 
    1910    734.94767    2588.4956   -792.24558   -803.55052    11.304934         2744    1.4935217 
    1920     439.4465    55034.384   -792.27759   -799.03714    6.7595473         2744    1.4739363 
    1930    299.30249    71828.413   -792.29226   -796.89612    4.6038582         2744    1.4771805 
    1940    575.44955    40399.675     -792.314   -801.16554    8.8515403         2744    1.5042789 
    1950    672.31578   -15602.417   -792.35436   -802.69589    10.341533         2744    1.5575703 
    1960    361.16696   -58057.737    -792.3754   -797.93086    5.5554547         2744    1.6154938 
    1970    288.20506   -65808.226    -792.3872   -796.82036    4.4331579         2744    1.6375283 
    1980    587.02311   -35151.657   -792.41768   -801.44724    9.0295645         2744     1.615087 
    1990    653.75746    19040.723   -792.46116   -802.51722    10.056069         2744    1.5813665 
    2000     366.9649    64319.458   -792.49015   -798.13479    5.6446384         2744    1.5670639 
    2010    369.21819    66900.971   -792.50982   -798.18912    5.6792983         2744    1.5775103 
    2020    669.07906    24396.543    -792.5408   -802.83255    10.291746         2744    1.6149902 
    2030    614.81036   -30635.368   -792.57097   -802.02796    9.4569867         2744    1.6760979 
    2040    270.99815   -64276.572   -792.57855   -796.74703     4.168482         2744    1.7293135 
    2050    353.58436   -59933.291   -792.59433   -798.03315    5.4388195         2744    1.7369385 
    2060    647.97003   -20612.416   -792.63087   -802.59792    9.9670473         2744    1.7050588 
    2070    558.30432    34932.772   -792.66648   -801.25429    8.5878132         2744    1.6708256 
    2080    279.61883    70039.553   -792.68111    -796.9822    4.3010849         2744    1.6617885 
    2090    440.13582    57920.562   -792.70635    -799.4765    6.7701503         2744    1.6816238 
    2100    687.74818    8110.0622   -792.74364   -803.32256    10.578913         2744    1.7318193 
    2110    468.68101   -43387.553   -792.76735   -799.97658    7.2092312         2744    1.7989798 
    2120    255.40916   -66184.512   -792.77936   -796.70805    3.9286928         2744    1.8426694 
    2130    433.57661   -51453.914   -792.79655   -799.46581    6.6692568         2744    1.8358127 
    2140    660.98818   -4609.5555   -792.83547   -803.00277    10.167292         2744    1.7972859 
    2150    455.62532    48514.942   -792.86793   -799.87634    7.0084092         2744    1.7658994 
    2160    274.53809    71569.303   -792.87968   -797.10261    4.2229331         2744    1.7628511 
    2170    542.60405    45943.271   -792.91128    -801.2576    8.3463123         2744    1.7933814 
    2180    658.05465   -8412.9624   -792.94378   -803.06594    10.122168         2744    1.8554903 
    2190    352.11255   -53655.584   -792.95824   -798.37442    5.4161802         2744    1.9226884 
    2200    277.69527   -65864.575   -792.97336   -797.24485    4.2714968         2744    1.9517718 
    2210    544.96828   -40039.338    -793.0031   -801.38578    8.3826789         2744    1.9304157 
    2220    645.91039    11585.929   -793.04263   -802.97799    9.9353659         2744      1.88936 
    2230    354.66525    59782.108   -793.05713   -798.51258    5.4554457         2744    1.8657125 
    2240    346.60367    68338.819   -793.08053   -798.41197    5.3314428         2744    1.8724035 
    2250    611.10465    30883.472   -793.10773   -802.50771    9.3999856         2744     1.914673 
    2260    578.41764   -24220.987    -793.1359    -802.0331    8.8971955         2744    1.9853818 
    2270    296.21817   -60913.538   -793.15186   -797.70828    4.5564153         2744    2.0462754 
    2280    353.05835   -60576.484    -793.1688   -798.59953    5.4307285         2744    2.0569825 
    2290    613.12022   -25146.884   -793.20007   -802.63106    9.4309891         2744    2.0207936 
    2300    548.12476    28422.004   -793.23251   -801.66374    8.4312316         2744    1.9776102 
    2310    293.82516    66501.984   -793.24925   -797.76885     4.519606         2744     1.961472 
    2320    419.84957    60153.897   -793.27051   -799.72862    6.4581081         2744    1.9803517 
    2330    668.52037     13569.66   -793.30325    -803.5864    10.283152         2744    2.0353115 
    2340    462.39124   -35456.304   -793.32492   -800.43741    7.1124823         2744    2.1090719 
    2350    255.34544   -62997.087   -793.33239    -797.2601    3.9277127         2744    2.1547182 
    2360    424.92606   -50932.449   -793.35197   -799.88817    6.5361945         2744    2.1475778 
    2370     597.4936   -8029.7551   -793.38203   -802.57265     9.190621         2744    2.1029051 
    2380    439.25531    42843.277   -793.41127   -800.16788    6.7566064         2744    2.0609987 
    2390    290.73295    68323.851   -793.43276   -797.90481    4.4720418         2744    2.0507048 
    2400    518.45827    46952.279   -793.45296   -801.42786    7.9749029         2744    2.0812569 
    2410    606.53585   -4583.0068   -793.47986   -802.80957    9.3297085         2744    2.1469301 
    2420    338.10574   -49043.496   -793.49724   -798.69797     5.200728         2744    2.2169671 
    2430    286.31574   -63141.781    -793.5108   -797.91489    4.4040965         2744     2.245967 
    2440    515.76004   -40433.822   -793.53623   -801.46963    7.9333989         2744    2.2226538 
    2450    590.07546    7252.7162    -793.5705   -802.64702    9.0765155         2744    2.1764573 
    2460    364.45998    54250.514   -793.59023   -799.19633    5.6061079         2744    2.1428988 
    2470    319.06186    66600.247   -793.59864   -798.50644    4.9077958         2744    2.1430671 
    2480    569.60043    33495.381   -793.62547   -802.38704    8.7615695         2744    2.1853392 
    2490    515.89268   -19978.451   -793.64998   -801.58542    7.9354392         2744    2.2588012 
    2500    293.06856   -57021.183   -793.66656   -798.17452    4.5079681         2744    2.3226665 
    2510    354.75123   -59498.848   -793.68225   -799.13902    5.4567683         2744    2.3346434 
    2520    547.62959   -28077.176   -793.71047   -802.13408    8.4236149         2744    2.2966332 
    2530    514.90125    22406.571   -793.73921    -801.6594     7.920189         2744    2.2474083 
    2540    324.37607    62743.864    -793.7579   -798.74744    4.9895389         2744    2.2237592 
    2550    407.36306    61300.306   -793.77242   -800.03846    6.2660412         2744    2.2397785 
    2560    595.30201    17433.592   -793.80132   -802.95823    9.1569101         2744     2.296484 
    2570    432.70221   -34365.802   -793.81859    -800.4744    6.6558068         2744    2.3742402 
    2580    293.81524   -61466.055    -793.8317   -798.35116    4.5194535         2744    2.4266729 
    2590     418.4373   -53330.894   -793.84952   -800.28591    6.4363847         2744    2.4233785 
    2600    549.05772   -13409.765   -793.87583   -802.32142    8.4455823         2744    2.3760589 
    2610    425.68134    37699.834   -793.90098    -800.4488    6.5478122         2744    2.3258095 
    2620    315.99478    67954.219    -793.9149   -798.77552    4.8606182         2744    2.3091438 
    2630    495.01712    50401.495    -793.9386   -801.55293    7.6143322         2744    2.3414334 
    2640    557.96705    26.124183   -793.96339   -802.54601    8.5826254         2744     2.412324 
    2650    373.29558   -45733.146   -793.97917   -799.72119    5.7420166         2744    2.4869773 
    2660     310.4706   -62633.007    -793.9921   -798.76774    4.7756455         2744    2.5232987 
    2670    478.40838   -44048.565   -794.01435   -801.37321    7.3588572         2744    2.5047589 
    2680    540.06272    1742.8185    -794.0428   -802.35002    8.3072216         2744    2.4535559 
    2690    395.33933    50964.908    -794.0628   -800.14389    6.0810927         2744    2.4101693 
    2700    372.81942     67853.74   -794.08278   -799.81748    5.7346924         2744    2.4058271 
    2710    520.53944    36920.354   -794.09626   -802.10317    8.0069154         2744    2.4525301 
    2720    492.63996    -15877.78   -794.11379   -801.69156    7.5777668         2744    2.5335782 
    2730    335.77647   -54566.572   -794.12985   -799.29475    5.1648993         2744    2.6022311 
    2740    338.36101    -60466.15   -794.14594   -799.35059    5.2046545         2744    2.6182929 
    2750    497.73281   -32302.045   -794.16773   -801.82384    7.6561049         2744    2.5805769 
    2760    495.60816    18514.329   -794.19094   -801.81436    7.6234236         2744    2.5254303 
    2770    362.10969    61361.224   -794.20844   -799.77839    5.5699557         2744    2.4936411 
    2780      392.663    62836.568   -794.22635   -800.26628    6.0399256         2744    2.5090023 
    2790    506.13677    20795.857   -794.24506   -802.03044    7.7853742         2744    2.5714923 
    2800    461.94145    -30757.01   -794.26535   -801.37091    7.1055636         2744     2.655073 
    2810    320.15846    -59744.11   -794.27703   -799.20169    4.9246638         2744    2.7147702 
    2820    362.29204   -55026.413   -794.29095   -799.86371    5.5727606         2744    2.7154575 
    2830    499.54604   -17864.645    -794.3134   -801.99739    7.6839958         2744    2.6644105 
    2840     452.2043    34618.719   -794.33361   -801.28939    6.9557872         2744    2.6060114 
    2850    345.47296    67288.601   -794.35125    -799.6653    5.3140504         2744    2.5855331 
    2860    411.99513    52731.528    -794.3689   -800.70619    6.3372915         2744    2.6189147 
    2870    509.01335    3766.0036   -794.39003   -802.21965    7.8296217         2744     2.692551 
    2880    414.69972   -42794.658   -794.40655   -800.78544    6.3788934         2744    2.7724778 
    2890    321.38104   -61018.799   -794.41965   -799.36312    4.9434694         2744    2.8125267 
    2900    387.28287    -44689.32   -794.43406   -800.39123    5.9571686         2744    2.7931913 
    2910    505.92628   -69.401173   -794.46082   -802.24295    7.7821365         2744    2.7357613 
    2920    417.51552    49025.508   -794.48383   -800.90604    6.4222059         2744     2.686477 
    2930    339.04359    66513.625   -794.49289   -799.70804     5.215154         2744    2.6832446 
    2940    447.96291    37232.437   -794.50859   -801.39913    6.8905463         2744    2.7354172 
    2950    499.88747   -13579.378   -794.52877   -802.21801    7.6892477         2744    2.8195312 
    2960    365.06264   -51599.352    -794.5485   -800.16388    5.6153779         2744    2.8905493 
    2970    310.60722    -58157.17   -794.55976   -799.33751    4.7777469         2744    2.9078396 
    2980    437.81596   -31227.059    -794.5767   -801.31116    6.7344664         2744    2.8663966 
    2990    498.68412    17376.348   -794.59802   -802.26875    7.6707379         2744    2.8013564 
    3000    374.36929    58973.339    -794.6132   -800.37173    5.7585324         2744    2.7629649 
    3010    333.22611    59607.791    -794.6315   -799.75717    5.1256698         2744    2.7785772 
    3020    500.26941    20273.957   -794.64772   -802.34284    7.6951226         2744    2.8441354 
    3030     455.7382   -28664.311   -794.66292   -801.67306    7.0101454         2744    2.9308574 
    3040    328.09948   -57112.745   -794.67726   -799.72407    5.0468121         2744    2.9907622 
    3050    316.69303   -53121.986   -794.68767   -799.55903    4.8713586         2744    2.9904421 
    3060     483.0782   -17363.374   -794.70698   -802.13766    7.4306882         2744    2.9360793 
    3070     469.3585    33369.005   -794.72488   -801.94453    7.2196524         2744    2.8738379 
    3080    321.88115    64295.679   -794.73993   -799.69109    4.9511621         2744    2.8509808 
    3090    357.78898    50113.876   -794.75137   -800.25487    5.5034947         2744    2.8844341 
    3100    514.77656    4082.5385   -794.77698   -802.69525    7.9182711         2744    2.9602795 
    3110    414.69916   -40360.947   -794.78786   -801.16675    6.3788848         2744    3.0421625 
    3120    294.99805   -59636.362   -794.79906    -799.3367    4.5376473         2744    3.0828717 
    3130    344.72763    -44855.56   -794.81007   -800.11265    5.3025857         2744    3.0595726 
    3140    519.09367    -1481.253   -794.83692   -802.82159    7.9846766         2744    2.9949477 
    3150    444.73914    47201.378   -794.85829   -801.69925    6.8409584         2744    2.9426367 
    3160    307.49293    64495.568   -794.86578   -799.59563     4.729843         2744    2.9427042 
    3170    426.23187    37203.164    -794.8766   -801.43288    6.5562804         2744    2.9970048 
    3180    521.79498   -11428.365   -794.89806   -802.92429    8.0262281         2744    3.0836903 
    3190    362.55666   -50231.017   -794.90832   -800.48515     5.576831         2744    3.1608803 
    3200     269.1287   -58737.068   -794.91763   -799.05735    4.1397262         2744    3.1821545 
    3210    435.51328   -33089.208   -794.93334   -801.63238    6.6990466         2744    3.1371477 
    3220    535.40909    15131.721   -794.95873   -803.19437    8.2356398         2744     3.064658 
    3230    350.89068    57231.425    -794.9687   -800.36608    5.3973855         2744    3.0208971 
    3240    309.91193    59713.725   -794.97784   -799.74489    4.7670521         2744    3.0374606 
    3250    504.10046    22560.271   -794.99671   -802.75076    7.7540517         2744    3.1068392 
    3260    484.69588   -26096.373    -795.0121   -802.46767    7.4555712         2744    3.1970315 
    3270    288.55902   -56726.164   -795.02054   -799.45914    4.4386025         2744    3.2617348 
    3280    292.64611    -54289.22    -795.0295   -799.53097      4.50147         2744    3.2622154 
    3290     515.7462   -18735.879   -795.05087   -802.98405     7.933186         2744    3.2050667 
    3300    484.69497    31458.271   -795.07017   -802.52572    7.4555573         2744    3.1407945 
    3310    297.01264    62932.813   -795.07653   -799.64517    4.5686358         2744    3.1169671 
    3320    331.18234    51314.023    -795.0817   -800.17593    5.0942327         2744    3.1525191 
    3330    542.77008    6512.1956   -795.10701   -803.45588    8.3488662         2744     3.234464 
    3340    403.59569   -38901.716   -795.11495   -801.32304    6.2080916         2744    3.3222612 
    3350    241.41715   -59724.695   -795.12002   -798.83349    3.7134683         2744    3.3642097 
    3360    338.09778   -45598.686   -795.13185   -800.33246    5.2006057         2744    3.3354336 
    3370    540.62308    -2978.453   -795.15994   -803.47578    8.3158411         2744     3.263543 
    3380    433.13484    45034.814   -795.17933   -801.84179    6.6624615         2744    3.2076642 
    3390    262.33226    63734.236   -795.18063   -799.21581    4.0351835         2744     3.208012 
    3400    439.24808    39160.465   -795.19531    -801.9518    6.7564952         2744    3.2646548 
    3410     519.3501   -9461.9958   -795.21131   -803.19993     7.988621         2744    3.3580705 
    3420    337.30043   -49145.506   -795.21784   -800.40618    5.1883408         2744    3.4418867 
    3430    239.87888   -58628.354    -795.2245   -798.91431    3.6898066         2744    3.4665972 
    3440     451.8815   -33981.928   -795.24296   -802.19378     6.950822         2744    3.4196216 
    3450    535.24261    13296.627   -795.26297   -803.49605     8.233079         2744    3.3429375 
    3460    317.46917    55139.096   -795.27153   -800.15482    4.8832972         2744    3.2968616 
    3470    294.80132    60294.047   -795.27804   -799.81266    4.5346213         2744    3.3125235 
    3480    513.69367    24475.277   -795.29568   -803.19729     7.901614         2744    3.3836976 
    3490    470.66116   -24596.699   -795.30839   -802.54808    7.2396898         2744    3.4779282 
    3500    248.65341   -55921.424   -795.31299   -799.13777    3.8247761         2744    3.5433739 
    3510    309.42091   -53905.521   -795.32337   -800.08287    4.7594992         2744    3.5412804 
    3520    501.39426   -19751.224   -795.33774   -803.05017    7.7124251         2744    3.4830732 
    3530    457.67824     29199.42   -795.35204   -802.39203    7.0399872         2744    3.4178066 
    3540    260.00223    61257.583    -795.3611   -799.36044    3.9993432         2744    3.3944559 
    3550    383.34376     51687.12   -795.38004   -801.27662    5.8965773         2744    3.4324947 
    3560    534.83042    8249.1158   -795.39344   -803.62018    8.2267387         2744    3.5192581 
    3570    394.27056   -37338.678   -795.39942   -801.46407     6.064653         2744    3.6124448 
    3580    235.76246   -58751.071   -795.40178   -799.02827     3.626488         2744    3.6563862 
    3590    360.74756   -45456.021   -795.41204   -800.96104    5.5490035         2744    3.6252981 
    3600    512.74702   -4627.4356   -795.43013   -803.31718    7.8870527         2744    3.5505547 
    3610     387.5805    42534.699   -795.44518   -801.40693    5.9617467         2744    3.4909345 
    3620    265.10569    63071.468   -795.44753   -799.52538    4.0778443         2744    3.4873522 
    3630    438.82445    40137.087   -795.46415   -802.21413    6.7499789         2744      3.54648 
    3640    502.53106   -8016.1876   -795.47795   -803.20786    7.7299114         2744    3.6436696 
    3650    308.44293    -47600.97   -795.48107   -800.22553    4.7444559         2744    3.7305619 
    3660    257.07075   -57822.615   -795.48639   -799.44064    3.9542513         2744    3.7567155 
    3670    442.94962   -34292.573   -795.50028   -802.31371    6.8134321         2744     3.712235 
    3680     492.8382    11527.547   -795.51934   -803.10016    7.5808162         2744    3.6378804 
    3690    300.65578    53257.024   -795.52496   -800.14964    4.6246743         2744    3.5909741 
    3700    312.40697    59946.646   -795.53119   -800.33662    4.8054306         2744     3.603736 
    3710    498.35331    25591.149   -795.54855    -803.2142    7.6656493         2744    3.6761173 
    3720    432.99346   -23208.474   -795.55936   -802.21964    6.6602869         2744     3.772906 
    3730    265.54874   -54388.772   -795.56388   -799.64854    4.0846594         2744    3.8380919 
    3740    320.50943   -53117.791   -795.57017   -800.50023    4.9300624         2744    3.8340785 
    3750     482.0677       -20766   -795.58469   -802.99984    7.4151447         2744    3.7733273 
    3760    421.58905    27061.479   -795.59572   -802.08058    6.4848647         2744    3.7069088 
    3770    261.23191    60004.054   -795.59624    -799.6145    4.0182581         2744    3.6845003 
    3780     372.5341    52322.101   -795.60538   -801.33569    5.7303037         2744    3.7246421 
    3790     484.0917    9417.5425   -795.62394   -803.07022    7.4462779         2744    3.8163084 
    3800    375.14791   -36128.692   -795.63421   -801.40472    5.7705091         2744    3.9131309 
    3810    263.20009   -57278.198   -795.63874   -799.68727    4.0485325         2744    3.9594839 
    3820    376.52848   -45594.629   -795.64776    -801.4395    5.7917449         2744    3.9306583 
    3830     477.8822   -6029.4794   -795.66087   -803.01164    7.3507635         2744     3.854732 
    3840    392.62113    40764.581   -795.67399   -801.71327    6.0392815         2744    3.7885822 
    3850    290.59246    62321.668   -795.67348   -800.14336    4.4698808         2744    3.7810173 
    3860     420.9397    40495.133   -795.68715   -802.16203    6.4748765         2744    3.8414175 
    3870    477.40585   -6909.8312    -795.7009   -803.04433    7.3434364         2744     3.941498 
    3880    313.25241   -45967.533   -795.70132   -800.51975    4.8184352         2744    4.0293878 
    3890      293.516   -56767.739   -795.70671   -800.22157    4.5148505         2744    4.0559771 
    3900    414.48923   -34918.044    -795.7175   -802.09315    6.3756556         2744    4.0142959 
    3910      458.368    9787.4958   -795.72874   -802.77933    7.0505969         2744     3.941647 
    3920    314.06747    51585.055   -795.72845   -800.55943    4.8309724         2744    3.8926048 
    3930    317.70484    59521.863   -795.73869   -800.62561    4.8869223         2744    3.9046416 
    3940    467.62335    26076.059   -795.75702   -802.94998    7.1929624         2744    3.9793855 
    3950    416.40915   -21657.444   -795.76413   -802.16932    6.4051878         2744    4.0790146 
    3960    284.49429   -52622.172   -795.76462    -800.1407     4.376079         2744    4.1456067 
    3970    334.81672   -52472.313    -795.7718   -800.92194    5.1501364         2744    4.1418364 
    3980    447.00706   -21951.883   -795.78354   -802.65938    6.8758435         2744     4.080508 
    3990    420.57653    24846.743   -795.79178   -802.26107    6.4692902         2744    4.0110109 
    4000    312.60206    58613.849   -795.79881   -800.60724    4.8084315         2744    3.9857724 
    4010    373.32074    51786.037   -795.81003   -801.55243    5.7424036         2744    4.0272235 
    4020    463.86081    10221.956   -795.81604   -802.95112    7.1350871         2744      4.12137 
    4030    375.27691   -34064.205   -795.81856   -801.59105    5.7724934         2744    4.2210402 
    4040    280.44928   -55929.773   -795.81977   -800.13363    4.3138589         2744    4.2713345 
    4050    338.12299   -45241.646   -795.82476   -801.02575    5.2009934         2744    4.2467218 
    4060    426.58688   -7173.9925   -795.83371   -802.39545    6.5617412         2744    4.1709046 
    4070    397.69759    39004.346   -795.84384   -801.96121    6.1173673         2744    4.0999203 
    4080    317.80807    60916.249   -795.85937   -800.74788    4.8885101         2744     4.088532 
    4090    400.57416    40077.674    -795.8678   -802.02941    6.1616147         2744    4.1483735 
    4100    446.64166   -5677.5227   -795.87022   -802.74044    6.8702229         2744    4.2493479 
    4110    341.16133   -43933.533   -795.87026   -801.11799    5.2477289         2744     4.338114 
    4120    291.97022   -54914.476   -795.87297   -800.36404    4.4910734         2744     4.367747 
    4130    381.49073   -35452.748   -795.88377   -801.75184    5.8680742         2744    4.3290197 
    4140    457.32027    8099.1305   -795.89483   -802.92931    7.0344809         2744    4.2562529 
    4150    349.39919    49842.652   -795.89836    -801.2728    5.3744434         2744    4.2058045 
    4160    329.06187    58433.872   -795.90462   -800.96623    5.0616157         2744    4.2181777 
    4170    416.81253     26078.26   -795.90939   -802.32078    6.4113925         2744    4.2958392 
    4180    402.43354   -19560.624   -795.91305   -802.10327    6.1902155         2744    4.3982603 
    4190    325.22079   -50634.304   -795.91841   -800.92094    5.0025324         2744    4.4667799 
    4200    308.07198   -51895.391   -795.92197   -800.66072    4.7387501         2744    4.4655192 
    4210    401.61905   -23036.387   -795.93084   -802.10853     6.177687         2744     4.402939 
    4220    442.90931    23453.214    -795.9411   -802.75391    6.8128121         2744    4.3267283 
    4230    332.00325    57184.982   -795.94214     -801.049    5.1068598         2744    4.2971962 
    4240     326.1275    50785.958   -795.94524   -800.96172    5.0164793         2744    4.3399857 
    4250    421.02449    11033.262   -795.95318   -802.42936    6.4761808         2744    4.4364021 
    4260    408.24964   -31485.019   -795.95644   -802.23612    6.2796786         2744    4.5389045 
    4270    288.57918   -53808.161   -795.95562   -800.39453    4.4389126         2744    4.5959536 
    4280    315.69722   -45507.506   -795.96224   -800.81828    4.8560412         2744    4.5770147 
    4290    426.07443   -8732.2808   -795.97178   -802.52564    6.5538586         2744    4.5010427 
    4300    437.04101    37022.619   -795.98154   -802.70408    6.7225461         2744    4.4266874 
    4310    294.76645    59028.399   -795.98184   -800.51593    4.5340849         2744    4.4118871 
    4320     362.5423     40180.68   -795.98865   -801.56526    5.5766101         2744    4.4703044 
    4330    439.66067   -3358.3236   -795.98953   -802.75237    6.7628416         2744    4.5712841 
    4340    376.41848   -41269.052   -795.99091   -801.78096    5.7900529         2744    4.6604038 
    4350    262.40518   -54151.697   -795.99056   -800.02687    4.0363052         2744    4.6929517 
    4360    342.27933   -36076.062   -795.99713   -801.26205     5.264926         2744    4.6559313 
    4370    453.06595    6281.3524   -796.00474   -802.97378     6.969041         2744    4.5808519 
    4380    388.68897    47765.705   -796.01281   -801.99161    5.9787972         2744    4.5282425 
    4390    300.42022    56636.392   -796.01808   -800.63913     4.621051         2744    4.5428147 
    4400    398.28654    27137.657   -796.02488   -802.15131    6.1264265         2744    4.6222364 
    4410    465.49498   -17003.985   -796.02788   -803.18811    7.1602239         2744    4.7267853 
    4420    331.58733   -48159.359   -796.02361   -801.12407    5.1004622         2744    4.8019832 
    4430     274.2127   -51548.247   -796.02594   -800.24387     4.217928         2744    4.8050573 
    4440    382.04786   -24176.769   -796.02839   -801.90503    5.8766439         2744    4.7396253 
    4450    468.03223    20855.649   -796.03572   -803.23497    7.1992517         2744    4.6577629 
    4460    325.31262    54435.949   -796.03311   -801.03705    5.0039449         2744    4.6228561 
    4470    274.54574    50302.118   -796.03689   -800.25994    4.2230509         2744    4.6619324 
    4480    440.13189    13677.164   -796.04722   -802.81731    6.7700899         2744    4.7567645 
    4490    434.35569   -28499.912   -796.04965   -802.73089    6.6812406         2744    4.8625998 
    4500    299.48109   -52573.559   -796.04982   -800.65642    4.6066053         2744    4.9261213 
    4510    282.94597    -45684.28   -796.04956   -800.40182    4.3522628         2744    4.9139925 
    4520    469.55536   -10415.119   -796.05796   -803.28064    7.2226805         2744    4.8396657 
    4530    425.50002    34196.237   -796.05995   -802.60497    6.5450232         2744     4.764008 
    4540     278.4471    56833.315    -796.0619   -800.34496    4.2830615         2744    4.7468495 
    4550    338.42153    40748.768   -796.06122    -801.2668    5.2055855         2744    4.8023236 
    4560    463.44258   -135.72708   -796.06194    -803.1906     7.128654         2744    4.9013258 
    4570    377.65546   -38730.579   -796.06254   -801.87162    5.8090801         2744    4.9943361 
    4580    237.56758   -53390.826   -796.06165    -799.7159    3.6542543         2744    5.0312238 
    4590      326.528   -36804.684   -796.06229   -801.08493    5.0226397         2744    4.9939033 
    4600    473.46606    4059.5383   -796.06888   -803.35171    7.2828346         2744    4.9171567 
    4610    375.57072     44604.84   -796.07331   -801.85032    5.7770128         2744    4.8645219 
    4620    250.30699    55482.612   -796.07531   -799.92552    3.8502114         2744    4.8769616 
    4630    410.34281    29330.179   -796.08289   -802.39476    6.3118755         2744      4.95585 
    4640    479.14609   -13722.096   -796.08247   -803.45267    7.3702046         2744    5.0655021 
    4650    328.73077   -46357.308    -796.0788   -801.13532    5.0565226         2744    5.1486921 
    4660    231.54136   -51678.423   -796.07432   -799.63588    3.5615593         2744    5.1588894 
    4670    422.83885   -25638.719   -796.08337   -802.58745     6.504089         2744    5.0935561 
    4680    484.06862    18229.722   -796.08499   -803.53092    7.4459228         2744    5.0052311 
    4690    296.32912    51863.775   -796.08386   -800.64198    4.5581219         2744    4.9636349 
    4700    286.94516    50458.714   -796.08935   -800.50313    4.4137781         2744    4.9977066 
    4710    476.18203    16576.952   -796.09244   -803.41705    7.3246117         2744    5.0898591 
    4720    442.50644    -25997.29   -796.08724   -802.89385    6.8066151         2744    5.2006566 
    4730    244.87841   -51460.049   -796.07972   -799.84643    3.7667092         2744    5.2734192 
    4740    291.92473   -46469.072   -796.08417   -800.57455    4.4903738         2744    5.2666327 
    4750     481.2758   -12570.415   -796.08899   -803.49195    7.4029638         2744    5.1947907 
    4760     400.2342     31363.91   -796.08198   -802.23837    6.1563853         2744    5.1193052 
    4770    240.25687    55567.831   -796.07959   -799.77521    3.6956209         2744    5.0979366 
    4780    338.60881    42967.287   -796.08539   -801.29385    5.2084662         2744     5.151216 
    4790    504.94556    2808.2715   -796.09308   -803.86013     7.767051         2744    5.2518335 
    4800    365.32898   -37033.795   -796.08692   -801.70639    5.6194748         2744    5.3493536 
    4810    228.73986   -53416.603   -796.08355   -799.60202    3.5184668         2744    5.3894439 
    4820    356.00553   -38282.263   -796.08386   -801.55992    5.4760619         2744    5.3524277 
    4830    512.07006    1709.0982   -796.09153   -803.96817    7.8766398         2744    5.2714816 
    4840    342.92931    41949.125   -796.08449   -801.35942    5.2749241         2744    5.2127213 
    4850    238.10055    55643.725   -796.08129   -799.74374    3.6624524         2744    5.2198444 
    4860    427.49007    32212.383   -796.08559   -802.66123     6.575634         2744    5.2971498 
    4870    486.47851   -10974.498   -796.08389   -803.56688    7.4829917         2744    5.4140138 
    4880    277.81327   -45321.506   -796.07414   -800.34745    4.2733118         2744    5.5093166 
    4890    225.71809    -52127.76   -796.06959   -799.54158     3.471986         2744    5.5258132 
    4900     436.3045   -27597.643   -796.07684   -802.78806    6.7112171         2744    5.4605442 
    4910    454.38341    15271.945   -796.07803   -803.06734    6.9893062         2744    5.3697715 
    4920    285.25787    50141.416   -796.07409   -800.46191    4.3878244         2744     5.320756 
    4930     295.7462    52640.379   -796.07843   -800.62758    4.5491554         2744    5.3464265 
    4940    497.39595    19977.214   -796.08155   -803.73247    7.6509232         2744    5.4394506 
    4950     409.2983    -24229.57    -796.0705   -802.36631    6.2958089         2744    5.5566069 
    4960    238.03385   -51354.421   -796.06409   -799.72551    3.6614265         2744    5.6359423 
    4970     312.0054   -47734.971   -796.06338   -800.86263    4.7992537         2744    5.6351072 
    4980    484.61169   -15007.176   -796.06704   -803.52132    7.4542763         2744    5.5642472 
    4990    392.34694    28219.881   -796.06168   -802.09674    6.0350639         2744    5.4834693 
    5000    237.56431    55497.885   -796.05419   -799.70839    3.6542041         2744    5.4548704 
    5010    358.92115    45982.655   -796.05618   -801.57709    5.5209098         2744    5.5024058 
    5020      508.048    5796.6317   -796.05974   -803.87451    7.8147726         2744    5.6088351 
    5030    327.96504   -35701.031   -796.04976    -801.0945    5.0447442         2744    5.7186724 
    5040     232.5399   -53926.035   -796.04429    -799.6212    3.5769187         2744    5.7649592 
    5050    379.76771    -40048.32   -796.04453    -801.8861    5.8415707         2744    5.7257351 
    5060    479.17258   -1540.2572   -796.04577   -803.41638    7.3706122         2744    5.6409988 
    5070    322.74672    40137.687   -796.03872    -801.0032    4.9644762         2744    5.5743951 
    5080    259.69424    57397.359   -796.03582   -800.03042    3.9946056         2744    5.5734753 
    5090    445.74751    35670.304   -796.03744   -802.89391    6.8564691         2744    5.6520566 
    5100    459.27703   -9148.1261    -796.0331   -803.09768    7.0645797         2744     5.777926 
    5110    283.21058   -45193.122   -796.02358   -800.37991    4.3563331         2744    5.8848981 
    5120    271.81566   -52734.237   -796.02545   -800.20651    4.1810569         2744    5.9102528 
    5130    446.53507   -28798.719    -796.0286   -802.89718    6.8685833         2744    5.8446978 
    5140      438.683    14238.121   -796.02466   -802.77246    6.7478032         2744    5.7446312 
    5150    298.38856    50751.922    -796.0224    -800.6122       4.5898         2744    5.6845535 
    5160    347.30558    54197.859   -796.02279   -801.36503    5.3422395         2744    5.7063856 
    5170    475.52141    20693.964   -796.01402   -803.32847      7.31445         2744    5.8047766 
    5180    359.32637   -24756.545   -796.00092   -801.52806    5.5271429         2744    5.9316513 
    5190    271.72072   -51827.283    -795.9985    -800.1781    4.1795964         2744    6.0162381 
    5200    327.42889   -47777.579    -795.9942    -801.0307    5.0364972         2744    6.0151595 
    5210    471.63199   -15385.193   -795.99694   -803.25156    7.2546232         2744     5.942005 
    5220    361.18641     28950.75   -795.98942   -801.54517    5.5557539         2744    5.8552258 
    5230    292.72841    56925.566   -795.98914   -800.49188     4.502736         2744     5.821013 
    5240    391.68181    46437.651   -795.98481   -802.00964    6.0248329         2744    5.8750267 
    5250      483.999    4678.5617   -795.98294    -803.4278    7.4448519         2744    5.9942199 
    5260    312.98926   -37055.751   -795.96758   -800.78197    4.8143875         2744    6.1117162 
    5270    283.72729    -53796.02   -795.96672     -800.331     4.364281         2744    6.1581199 
    5280    392.22329   -39196.284   -795.95881   -801.99198    6.0331619         2744    6.1120121 
    5290    429.47911    123.79552    -795.9509   -802.55713    6.6062293         2744    6.0164537 
    5300    318.90645    42594.759   -795.94689    -800.8523    4.9054054         2744    5.9403948 
    5310    315.39469    58456.378   -795.94949   -800.80088    4.8513876         2744    5.9397236 
    5320    438.63849    33759.121   -795.94221   -802.68932    6.7471184         2744    6.0291792 
    5330    426.08974   -11822.387   -795.93327   -802.48736    6.5540942         2744    6.1706787 
    5340    300.13071   -46639.032   -795.92437   -800.54097    4.6165977         2744    6.2864277 
    5350    301.27512   -52764.639   -795.91862   -800.55282    4.6342011         2744    6.3134446 
    5360    416.03679   -29022.531    -795.9204   -802.31986    6.3994601         2744    6.2465819 
    5370    435.07666        14678   -795.91889   -802.61122    6.6923305         2744    6.1376308 
    5380    347.31372    52207.675   -795.91316   -801.25552    5.3423648         2744    6.0690264 
    5390    358.13557    54773.717   -795.90344   -801.41227     5.508826         2744     6.091094 
    5400    457.13531    19341.906   -795.89916    -802.9308    7.0316358         2744    6.1961183 
    5410    373.11495   -25727.172   -795.88418   -801.62342    5.7392383         2744    6.3288865 
    5420    299.11849   -52049.174   -795.87464   -800.47566    4.6010279         2744    6.4160603 
    5430    340.65135   -48482.574   -795.87133   -801.11121    5.2398845         2744    6.4144845 
    5440    417.23844   -16177.187    -795.8682   -802.28614    6.4179438         2744     6.335829 
    5450    405.33756    29402.936   -795.86332    -802.0982    6.2348851         2744    6.2413065 
    5460    327.51977    58241.354   -795.85655   -800.89444    5.0378951         2744    6.2061489 
    5470    381.80717     46544.76   -795.84908   -801.72202    5.8729416         2744    6.2700909 
    5480    433.97156    4370.7303   -795.84258   -802.51791    6.6753319         2744    6.4040168 
    5490    350.96034    -36814.43   -795.82799   -801.22644     5.398457         2744    6.5305066 
    5500    306.74086    -54711.14   -795.82124   -800.53951    4.7182747         2744    6.5825536 
    5510    353.30174   -41201.136   -795.81542   -801.24989    5.4344723         2744    6.5364251 
    5520    446.10922   -1987.9143   -795.81263   -802.67466    6.8620329         2744    6.4270423 
    5530    360.77141    42838.735   -795.80381   -801.35318    5.5493704         2744    6.3326484 
    5540    338.91218    59533.181   -795.80499   -801.01813    5.2131326         2744    6.3252821 
    5550    415.18992     34757.43   -795.79532   -802.18175    6.3864336         2744    6.4220797 
    5560    430.09571   -10618.579   -795.78077   -802.39648    6.6157139         2744    6.5747044 
    5570    335.75876   -46162.081   -795.76768   -800.93231    5.1646269         2744    6.7013378 
    5580    306.00607   -53748.365   -795.76189   -800.46887    4.7069723         2744    6.7363554 
    5590    370.69504   -30877.243   -795.75761   -801.45962    5.7020152         2744    6.6708304 
    5600    438.88981    13831.704   -795.74989   -802.50087    6.7509843         2744    6.5561252 
    5610    367.65113    52476.921   -795.74739   -801.40259    5.6551939         2744    6.4783135 
    5620    334.49567    55751.253   -795.73807   -800.88326    5.1451981         2744      6.49788 
    5630    423.28856    20814.519   -795.72919    -802.2402    6.5110065         2744    6.6094247 
    5640    416.85391   -23943.776   -795.71713   -802.12916    6.4120291         2744    6.7497833 
    5650    338.42542   -52078.124    -795.7075   -800.91314    5.2056453         2744    6.8418939 
    5660    286.76264   -49888.229    -795.6962   -800.10717    4.4109707         2744    6.8388668 
    5670    403.20407   -18042.284   -795.69356   -801.89563    6.2020678         2744    6.7497288 
    5680    457.14839    28744.791   -795.68932   -802.72116     7.031837         2744    6.6439264 
    5690     338.6815    58536.847   -795.67738   -800.88697    5.2095843         2744    6.6092832 
    5700    334.55818     47369.76   -795.66396   -800.81012    5.1461596         2744    6.6819711 
    5710    433.21863     5946.058   -795.65833   -802.32208    6.6637504         2744    6.8264337 
    5720    409.69927   -35318.737   -795.65057   -801.95254    6.3019767         2744    6.9649409 
    5730     286.6358   -54068.939   -795.63915   -800.04817    4.4090196         2744    7.0243973 
    5740    335.03168     -42291.7   -795.63499   -800.78843    5.1534431         2744    6.9760532 
    5750    479.32097   -2932.9322   -795.63643   -803.00932    7.3728947         2744    6.8545545 
    5760     427.1777    41598.717   -795.62375   -802.19458    6.5708291         2744     6.747567 
    5770    311.72442    58306.714   -795.61127   -800.40621    4.7949316         2744    6.7362929 
    5780    364.18568     35488.21    -795.6006   -801.20249    5.6018886         2744    6.8365316 
    5790    488.84861   -8563.1615   -795.59545    -803.1149    7.5194484         2744    6.9918985 
    5800    371.56296   -43668.534   -795.59196   -801.30732    5.7153655         2744    7.1191987 
    5810    291.98743    -52244.41   -795.58338   -800.07471    4.4913381         2744    7.1495884 
    5820    380.25128   -29278.491   -795.57569    -801.4247    5.8490089         2744    7.0773108 
    5830    465.81039    14073.704   -795.56578   -802.73086    7.1650755         2744    6.9565428 
    5840    360.19462    50000.103   -795.55708   -801.09758    5.5404982         2744    6.8781518 
    5850    306.90829    52437.832   -795.54939   -800.27024    4.7208501         2744    6.8996952 
    5860    448.67488     20098.64   -795.54182   -802.44332    6.9014978         2744    7.0112726 
    5870     457.4321    -22748.93    -795.5258     -802.562    7.0362009         2744    7.1477558 
    5880    295.86937   -50276.417    -795.5106   -800.06165      4.55105         2744    7.2314202 
    5890    277.69935    -48109.35   -795.50191   -799.77347    4.2715595         2744     7.213931 
    5900    435.08763   -16152.914   -795.49863   -802.19113    6.6924993         2744    7.1119812 
    5910    470.81055    28309.084   -795.49142    -802.7334    7.2419878         2744    7.0004866 
    5920    293.51815    55342.924   -795.47663   -799.99152    4.5148837         2744    6.9652354 
    5930     337.3865    44919.062   -795.46877   -800.65843    5.1896648         2744    7.0371387 
    5940    474.00904    6304.4268   -795.45703   -802.74822    7.2911867         2744     7.181479 
    5950    412.74108   -34016.148   -795.44674    -801.7955    6.3487657         2744      7.32343 
    5960    259.36596   -53095.521   -795.43575   -799.42531     3.989556         2744     7.383347 
    5970    348.84172   -40785.107   -795.43307   -800.79893    5.3658684         2744    7.3255973 
    5980    502.05809   -2404.5981   -795.42583   -803.14846    7.7226361         2744    7.1935381 
    5990    416.91765    39994.804   -795.41217   -801.82517    6.4130094         2744    7.0823437 
    6000    270.26924    56469.016   -795.39623    -799.5535    4.1572699         2744     7.068985 
    6010    412.41373    34991.201    -795.3953   -801.73903    6.3437304         2744    7.1624333 
    6020    491.18504   -7680.2738   -795.38151   -802.93689    7.5553872         2744    7.3150207 
    6030    336.23973   -43560.656   -795.36607   -800.53809    5.1720252         2744    7.4459272 
    6040    254.21578   -52603.455   -795.35481   -799.26514    3.9103362         2744    7.4820704 
    6050    429.39825   -30731.069   -795.35521   -801.96019    6.6049855         2744    7.4087263 
    6060    521.11978     11860.17    -795.3502   -803.36604    8.0158422         2744    7.2835985 
    6070    315.58311     48756.78   -795.32939   -800.18367    4.8542859         2744    7.2031219 
    6080    314.93079    53481.173   -795.32151   -800.16576     4.844252         2744    7.2287889 
    6090    477.51161    23103.281   -795.31275   -802.65781    7.3450632         2744    7.3484671 
    6100    470.76335   -21197.018    -795.3043   -802.54556    7.2412617         2744    7.4935454 
    6110    288.71328   -50229.651   -795.29201   -799.73298    4.4409753         2744    7.5829358 
    6120    335.88862   -48974.428   -795.28641   -800.45303    5.1666244         2744    7.5647028 
    6130    506.89782   -18373.515   -795.28271   -803.07979    7.7970805         2744    7.4570007 
    6140    474.00884    25486.315   -795.27037   -802.56155    7.2911837         2744    7.3391172 
    6150    296.46966    54227.919   -795.25381   -799.81409    4.5602836         2744    7.2946608 
    6160     375.8174    46978.215   -795.24265   -801.02346    5.7808072         2744    7.3635886 
    6170     521.8014    8645.0186    -795.2342   -803.26053    8.0263268         2744    7.5211142 
    6180     393.0532    -33157.25   -795.21562   -801.26155    6.0459275         2744    7.6807962 
    6190    241.78231   -53004.276   -795.20037   -798.91946    3.7190852         2744    7.7503842 
    6200    397.05907   -41591.711   -795.20119   -801.30873    6.1075456         2744    7.6963367 
    6210    494.15938   -4238.5828   -795.18972   -802.79085    7.6011385         2744    7.5634817 
    6220    385.48827    37607.834   -795.17935   -801.10891     5.929564         2744    7.4471196 
    6230    309.33911    56092.494   -795.17339   -799.93163    4.7582409         2744    7.4246735 
    6240    476.83499    36981.637   -795.16997   -802.50463    7.3346555         2744    7.5137678 
    6250     477.3291   -5764.6683    -795.1475   -802.48976    7.3422559         2744    7.6701443 
    6260    311.93893   -42615.209   -795.13069   -799.92892    4.7982313         2744    7.8069627 
    6270     290.9604   -52459.769   -795.12128   -799.59682    4.4755404         2744    7.8437722 
    6280     445.9217   -31639.853   -795.11566   -801.97481    6.8591485         2744    7.7688725 
    6290    482.84323    9670.7856   -795.10938   -802.53646    7.4270739         2744     7.645617 
    6300    311.96335    47264.203   -795.09158   -799.89019    4.7986068         2744    7.5674211 
    6310    333.10958    55143.902   -795.07948   -800.20336    5.1238773         2744    7.5941466 
    6320     492.8385    24862.627   -795.07548    -802.6563    7.5808208         2744    7.7230245 
    6330    430.51669   -20113.638   -795.06344   -801.68563    6.6221893         2744    7.8831383 
    6340    269.93419   -49436.749   -795.04758    -799.1997    4.1521162         2744    7.9822069 
    6350    370.22763   -49314.354   -795.04399   -800.73881    5.6948255         2744    7.9649669 
    6360    500.18424   -20059.356   -795.04057   -802.73438    7.6938126         2744    7.8489403 
    6370    439.38517    23387.808   -795.03214   -801.79075    6.7586039         2744    7.7160716 
    6380    303.56694    54474.169   -795.01383   -799.68329    4.6694536         2744    7.6617126 
    6390    427.22772    48691.181   -795.01001   -801.58161    6.5715985         2744      7.73341 
    6400    496.41933    10193.774   -794.99722   -802.63312    7.6359009         2744    7.8997734 
    6410    378.39785   -32114.893   -794.98233   -800.80283    5.8204995         2744     8.070261 
    6420     301.6241   -52845.614   -794.97037   -799.60994    4.6395691         2744    8.1504922 
    6430    418.91124   -42743.474   -794.96679   -801.41047    6.4436747         2744    8.1053732 
    6440    463.18719   -6735.8312   -794.95373   -802.07845    7.1247256         2744    7.9766784 
    6450    384.91406    36024.226   -794.94434   -800.86507    5.9207316         2744    7.8529161 
    6460    356.96528    57040.549   -794.94253   -800.43335    5.4908247         2744    7.8199416 
    6470    495.49956    39008.862   -794.93653   -802.55828    7.6217531         2744    7.9112251 
    6480    436.03145   -4511.1098   -794.91279   -801.61981    6.7070171         2744    8.0786262 
    6490    346.20899    -41673.11   -794.90269   -800.22806    5.3253718         2744    8.2191627 
    6500    354.86799   -52717.298   -794.89459   -800.35315    5.4585642         2744    8.2564805 
    6510    436.08586   -33827.616   -794.88691   -801.59477    6.7078541         2744    8.1817786 
    6520    463.77073    6856.4537   -794.87904   -802.01274    7.1337015         2744    8.0553203 
    6530    364.03793    46693.263   -794.86462   -800.46423    5.5996158         2744     7.971995 
    6540    409.57562    55784.259   -794.86406   -801.16414    6.3000746         2744    8.0002634 
    6550    474.57915    26311.372   -794.85366   -802.15361    7.2999562         2744    8.1397439 
    6560    422.64274   -18040.399   -794.83591   -801.33698    6.5010725         2744    8.3165376 
    6570    335.02625   -48407.352   -794.82027   -799.97363    5.1533595         2744    8.4288986 
    6580    373.55143   -49910.093   -794.81345    -800.5594    5.7459521         2744    8.4160874 
    6590    442.04602   -22873.393   -794.80586    -801.6054     6.799533         2744    8.2944123 
    6600    433.65072    21484.698   -794.79799   -801.46838    6.6703969         2744    8.1457229 
    6610     380.8712    54341.091   -794.78986   -800.64841    5.8585445         2744    8.0767443 
    6620    396.21832    50198.652   -794.77743   -800.87204    6.0946133         2744    8.1434821 
    6630    438.48181    12270.077   -794.76651   -801.51122    6.7447085         2744    8.3128262 
    6640    405.95315   -30186.947   -794.75493   -800.99929     6.244354         2744    8.4912799 
    6650    342.46798   -51896.238   -794.74264   -800.01046    5.2678278         2744    8.5863676 
    6660    393.61311   -44581.039   -794.73811   -800.79265    6.0545401         2744    8.5565516 
    6670    429.38718   -9489.5918   -794.72957   -801.33438    6.6048152         2744    8.4303627 
    6680    436.61294    34747.075   -794.72327   -801.43923    6.7159615         2744    8.2986114 
    6690    378.33032    57785.223   -794.71604    -800.5355    5.8194608         2744    8.2637292 
    6700     428.2847    40203.551   -794.70533   -801.29319    6.5878569         2744    8.3610699 
    6710     439.6526   -2320.2457   -794.69166   -801.45438    6.7627175         2744    8.5308996 
    6720    405.24489   -39655.786   -794.68205   -800.91551    6.2334595         2744    8.6721457 
    6730    358.07264   -53045.255   -794.67344    -800.1813     5.507858         2744    8.7120919 
    6740       384.09   -36128.713   -794.66575    -800.5738    5.9080559         2744     8.638031 
    6750    466.62802    4617.9121   -794.66177   -801.83942    7.1776523         2744    8.5044846 
    6760    435.14187    46251.194   -794.65352   -801.34686    6.6933336         2744    8.4095614 
    6770    369.38851    56463.691   -794.63767   -800.31959    5.6819183         2744    8.4360304 
    6780    416.29081    27887.473   -794.63053    -801.0339    6.4033674         2744    8.5870882 
    6790    470.78193   -15803.117    -794.6229   -801.86444    7.2415474         2744    8.7794763 
    6800    361.12373   -46848.434    -794.6035   -800.15829    5.5547898         2744    8.9083896 
    6810    332.58794   -51002.973   -794.59762   -799.71348    5.1158535         2744    8.9076649 
    6820    399.89018    -25124.38    -794.5944   -800.74549    6.1510936         2744    8.7850747 
    6830     521.4201    19822.211   -794.59653   -802.61699    8.0204617         2744    8.6244615 
    6840    425.76061    53335.595   -794.58865   -801.13768    6.5490316         2744    8.5440122 
    6850    350.32654    50393.967   -794.57041   -799.95912    5.3887079         2744    8.6028699 
    6860    449.99949     14072.77   -794.56699   -801.48887    6.9218729         2744    8.7682753 
    6870    467.13202   -27107.054   -794.55561   -801.74102    7.1854048         2744    8.9500556 
    6880    372.76031    -51076.42   -794.54006   -800.27384    5.7337831         2744     9.054377 
    6890    332.29805   -45016.897   -794.53095   -799.64234    5.1113944         2744    9.0313751 
    6900    471.04876   -10478.101   -794.52824   -801.77389    7.2456519         2744    8.9062212 
    6910    470.04991    33818.201   -794.52037   -801.75066    7.2302876         2744    8.7756369 
    6920    366.65543    56343.724   -794.51409   -800.15397    5.6398782         2744    8.7473849 
    6930    391.95939     39932.42   -794.50848   -800.53759    6.0291026         2744     8.850999 
    6940    486.76232   -627.08033   -794.49843   -801.98579    7.4873572         2744    9.0244576 
    6950    440.31403   -34560.638   -794.49373   -801.26662    6.7728916         2744    9.1669767 
    6960    341.61871   -50206.256   -794.48717   -799.74193    5.2547644         2744    9.1920488 
    6970    358.02921   -33855.661   -794.47832   -799.98551      5.50719         2744    9.1000881 
    6980    507.19742    5905.0029   -794.48124   -802.28293     7.801689         2744    8.9486568 
    6990    440.31726    44111.212    -794.4734   -801.24634    6.7729412         2744    8.8475749 
    7000    334.27799    52218.592   -794.46007   -799.60192    5.1418497         2744    8.8804616 
    7010    441.78719    25554.692   -794.45586   -801.25141    6.7955516         2744    9.0370999 
    7020    494.74381   -14657.729   -794.44555   -802.05568    7.6101281         2744    9.2328119 
    7030    393.97763   -42974.426   -794.43465    -800.4948     6.060147         2744     9.366269 
    7040    291.76679   -47378.926   -794.42033   -798.90828    4.4879443         2744    9.3644498 
    7050    444.31351   -21228.497    -794.4205   -801.25492    6.8344114         2744    9.2378528 
    7060    525.74374    20667.144   -794.41567   -802.50264    8.0869678         2744    9.0731307 
    7070    372.41999     49747.65   -794.40263   -800.13118    5.7285484         2744    8.9857336 
    7080    368.46086    44909.282   -794.40122   -800.06887    5.6676492         2744    9.0318707 
    7090    451.70639    12108.925   -794.38835   -801.33648    6.9481283         2744       9.1815 
    7100    467.09189   -25767.146   -794.37829   -801.56308    7.1847875         2744    9.3454045 
    7110    327.32141   -48187.543   -794.36852   -799.40337    5.0348439         2744    9.4389691 
    7120    322.64762   -42058.713   -794.36517   -799.32812    4.9629519         2744    9.4134958 
    7130    524.65245   -8906.3076   -794.36923   -802.43941    8.0701816         2744    9.2936552 
    7140    490.17209    32010.097   -794.36389   -801.90369    7.5398061         2744    9.1748549 
    7150    372.58058    51430.011   -794.36227   -800.09329    5.7310186         2744     9.152276 
    7160    387.81395    36923.463   -794.34785   -800.31319    5.9653376         2744    9.2517889 
    7170    507.97827   -59.859039   -794.33786   -802.15156       7.8137         2744    9.4193052 
    7180    445.08371    -35723.94   -794.33101   -801.17727    6.8462586         2744    9.5592035 
    7190     319.8744   -48864.792    -794.3234    -799.2437    4.9202943         2744    9.5922563 
    7200    388.23456   -33828.987   -794.31682   -800.28863    5.9718074         2744    9.4996937 
    7210    535.71094    4178.3603   -794.31529   -802.55557    8.2402827         2744    9.3439747 
    7220    417.40967    40692.272   -794.30831   -800.72889    6.4205777         2744    9.2355051 
    7230    318.87607    50194.454   -794.29911   -799.20405    4.9049381         2744    9.2529705 
    7240    458.36868    27067.642   -794.29947   -801.35008    7.0506074         2744    9.3911305 
    7250    537.80188   -11885.103   -794.29695   -802.56939    8.2724455         2744     9.581973 
    7260    389.94157   -42355.104   -794.28477   -800.28284    5.9980646         2744    9.7294145 
    7270     305.3574   -47888.633   -794.27557   -798.97256    4.6969944         2744    9.7550441 
    7280     487.4238   -23333.595   -794.27661   -801.77415     7.497532         2744    9.6488362 
    7290     519.0191     16569.92   -794.27168   -802.25521    7.9835297         2744    9.4938714 
    7300    365.87839    46522.154    -794.2666   -799.89452    5.6279257         2744    9.4041295 
    7310    354.23229    46569.797   -794.25186   -799.70064    5.4487859         2744    9.4399764 
    7320    513.07276    16227.357   -794.24795   -802.14001    7.8920633         2744    9.5785326 
    7330    458.09971   -22921.876   -794.23862   -801.28509    7.0464701         2744    9.7438882 
    7340    300.60126   -46940.821   -794.23221   -798.85605    4.6238358         2744    9.8435634 
    7350    358.70994   -43133.089    -794.2313   -799.74897    5.5176609         2744    9.8236235 
    7360    522.97447   -12078.267   -794.23164   -802.27601    8.0443709         2744    9.7079952 
    7370    485.22028    28244.937   -794.23223   -801.69587    7.4636376         2744    9.5853745 
    7380    333.21239    50126.538   -794.22516   -799.35061    5.1254587         2744    9.5520239 
    7390    417.19266    39839.287   -794.21864   -800.63588    6.4172397         2744    9.6485351 
    7400    545.67185    3981.8031   -794.21344   -802.60695    8.3935011         2744    9.8290765 
    7410    398.26325   -33169.693   -794.20078   -800.32685    6.1260684         2744    9.9928466 
    7420    304.45283   -48880.931   -794.19554   -798.87862    4.6830804         2744    10.047251 
    7430    424.64525   -35761.697   -794.19602   -800.72789    6.5318751         2744    9.9654641 
    7440     550.7914    4.5709719   -794.19505    -802.6673    8.4722498         2744    9.8086713 
    7450    385.05063    37334.494   -794.18667    -800.1095    5.9228323         2744    9.6860804 
    7460    348.41655    51194.914   -794.19421   -799.55354    5.3593284         2744    9.6749966 
    7470    495.54761    31110.802   -794.19075   -801.81324    7.6224922         2744    9.7942973 
    7480    509.56473   -8328.3714   -794.17253   -802.01063     7.838103         2744    9.9918869 
    7490    320.46327   -41068.031   -794.15783   -799.08719    4.9293524         2744    10.160432 
    7500    327.82496   -48221.142   -794.15779   -799.20038    5.0425896         2744    10.207095 
    7510    485.28177   -26895.215   -794.16175   -801.62633    7.4645834         2744    10.119276 
    7520    513.20285    12506.496   -794.16702   -802.06108    7.8940643         2744    9.9723364 
    7530    342.60952    45316.244   -794.16117   -799.43118     5.270005         2744    9.8778663 
    7540    402.78419    48842.386   -794.15875   -800.35436    6.1956092         2744    9.9039549 
    7550    544.62098    20298.981   -794.15622   -802.53356    8.3773366         2744    10.041407 
    7560    469.12544   -20557.844   -794.14739   -801.36346    7.2160675         2744    10.217169 
    7570    314.41732   -47010.111   -794.13957   -798.97592    4.8363539         2744    10.328935 
    7580    398.47871   -44821.403   -794.14064   -800.27002    6.1293825         2744    10.315342 
    7590    541.75763   -16208.319   -794.14409   -802.47738    8.3332928         2744    10.194871 
    7600     445.0998    24573.256   -794.13955   -800.98606    6.8465062         2744    10.056461 
    7610    345.87486    50470.602    -794.1345   -799.45473    5.3202323         2744    10.006543 
    7620    472.17707     43537.27   -794.13337   -801.39637    7.2630076         2744    10.097148 
    7630    523.07913    7649.4029   -794.12539   -802.17137    8.0459808         2744      10.2918 
    7640    405.92473   -31411.659   -794.11743   -800.36135    6.2439169         2744    10.484479 
    7650    306.80174    -49378.88   -794.11317   -798.83238    4.7192112         2744    10.571746 
    7660    440.14637   -38722.664   -794.11448   -800.88479    6.7703126         2744     10.51398 
    7670    518.58823   -4454.2162   -794.11498   -802.09188     7.976902         2744    10.360267 
    7680    400.93548     34904.43   -794.11497   -800.28214    6.1671724         2744    10.214691 
[...]
    8110    387.57762   -46670.694   -794.10227   -800.06398    5.9617023         2744    11.830315 
    8120    401.41183    -42941.26    -794.1044    -800.2789    6.1744997         2744    11.816331 
    8130     487.6515   -12922.893   -794.10961   -801.61065    7.5010345         2744    11.676851 
    8140    435.84408     27601.57   -794.10331   -800.80745     6.704135         2744    11.516731 
    8150    363.20008    51954.917   -794.10146   -799.68819    5.5867281         2744    11.452189 
    8160    441.88988    40101.429   -794.10999   -800.90712    6.7971312         2744    11.539999 
    8170    481.30662    3051.6898   -794.11638   -801.51982    7.4034378         2744    11.740807 
    8180    436.57328    -33353.88    -794.1205   -800.83585    6.7153515         2744    11.948566 
    8190    360.82658   -49173.036   -794.11837   -799.66859    5.5502191         2744    12.051246 
    8200    424.74011   -35702.286   -794.12028   -800.65362    6.5333342         2744    12.001269 
    8210    474.14226   -189.78527   -794.12196    -801.4152     7.293236         2744    11.849176 
    8220    443.90407    38352.257     -794.127   -800.95511    6.8281134         2744    11.716765 
    8230    365.40898    51866.597   -794.12591   -799.74661    5.6207053         2744    11.717169 
    8240    475.15945    30110.462    -794.1436   -801.45249    7.3088823         2744    11.867285 
    8250     490.3014   -9468.6375    -794.1398    -801.6816    7.5417952         2744    12.087119 
    8260     384.4176   -40866.407   -794.13415   -800.04724    5.9130952         2744     12.25924 
    8270    340.86247   -47591.571   -794.13411   -799.37724    5.2431319         2744    12.300279 
    8280    443.91722   -26669.911   -794.14221   -800.97053    6.8283157         2744    12.197304 
    8290    478.89554    12868.008   -794.14586   -801.51221    7.3663507         2744     12.02501 
    8300    401.91513    46413.337   -794.14815    -800.3304    6.1822414         2744    11.911077 
    8310    387.09492    48183.983   -794.15662    -800.1109    5.9542775         2744    11.957101 
    8320     490.3597    18065.719   -794.16673   -801.70943    7.5426919         2744    12.156526 
    8330    454.70529   -20821.211   -794.16233   -801.15659    6.9942573         2744     12.39859 
    8340    375.82886    -45963.79    -794.1639   -799.94488    5.7809835         2744     12.55482 
    8350    379.80363    -44293.84   -794.16739   -800.00951    5.8421232         2744    12.553656 
    8360    462.25848   -14996.422   -794.17281   -801.28325    7.1104402         2744    12.417042 
    8370    470.18746    25363.923   -794.18196   -801.41436    7.2324034         2744    12.251204 
    8380    381.30642    50403.635   -794.19095   -800.05619    5.8652391         2744    12.175756 
    8390    436.48538    41399.504   -794.18946   -800.90346    6.7139994         2744    12.256576 
    8400    452.67057     6230.152   -794.18241   -801.14537    6.9629593         2744    12.461495 
    8410    428.65603   -31070.715   -794.19188   -800.78545    6.5935688         2744    12.678263 
    8420    309.21961   -48438.082   -794.19224   -798.94864    4.7564029         2744    12.789189 
    8430    396.47942   -37122.562   -794.19777    -800.2964    6.0986295         2744    12.744121 
    8440    476.63828   -2616.2633   -794.20961   -801.54124    7.3316296         2744     12.58959 
    8450    473.92602    36315.807   -794.22895   -801.51886    7.2899097         2744    12.446969 
    8460    364.49082    51318.724   -794.22883   -799.83541    5.6065823         2744    12.440651 
    8470    433.46284    32400.931   -794.22439   -800.89189    6.6675069         2744    12.591631 
    8480    471.84235   -6582.6219   -794.22546   -801.48332    7.2578589         2744     12.82199 
    8490    377.30342   -39078.014   -794.22619   -800.02985    5.8036651         2744     13.01315 
    8500    312.95407   -48275.836   -794.23024   -799.04409    4.8138461         2744    13.067419 
    8510    442.83701   -28333.484   -794.24392   -801.05562    6.8116999         2744    12.964442 
    8520    491.79745    10191.416   -794.25682   -801.82163    7.5648073         2744    12.783799 
    8530     410.5797    44624.225   -794.26312   -800.57864    6.3155193         2744    12.657322 
    8540    384.67262    49043.685   -794.27243   -800.18945    5.9170178         2744    12.688931 
    8550    483.40671    20768.627   -794.28056    -801.7163    7.4357413         2744    12.879964 
    8560    472.56863   -18315.492   -794.27897     -801.548    7.2690304         2744    13.130598 
    8570    355.54237   -45005.155   -794.27788   -799.74682    5.4689375         2744    13.304865 
    8580    363.93048   -44992.036   -794.28428   -799.88224    5.5979631         2744    13.318566 
    8590    459.13632   -17577.404   -794.29352   -801.35593    7.0624152         2744    13.186563 
    8600    484.21743     22733.89   -794.30881   -801.75702    7.4482118         2744    13.014132 
    8610    327.21648    49629.964   -794.29651   -799.32974    5.0332299         2744    12.931785 
    8620    387.35072    43612.194   -794.30398   -800.26219    5.9582122         2744    13.009611 
    8630    471.23555    9077.0029   -794.31255   -801.56108    7.2485251         2744    13.213698 
    8640    416.88362   -29040.811   -794.31991    -800.7324     6.412486         2744    13.438503 
    8650    289.39503   -48100.654   -794.32147   -798.77293     4.451462         2744    13.563025 
    8660     406.0954   -38324.639   -794.33931   -800.58585    6.2465421         2744    13.524086 
    8670     495.3926   -5534.0784   -794.34852   -801.96863    7.6201078         2744    13.362638 
    8680    443.44854    33655.247    -794.3593   -801.18041    6.8211064         2744    13.204607 
    8690    325.07283    51406.298   -794.35757   -799.35782    5.0002564         2744    13.178443 
    8700    467.76062      34795.1   -794.36731   -801.56238    7.1950739         2744    13.324544 
    8710    476.12652   -4377.3975   -794.37998   -801.70374    7.3237578         2744    13.573164 
    8720    412.55467   -37696.373   -794.38766   -800.73356    6.3458982         2744    13.784498 
    8730     326.1465   -47975.649   -794.38682   -799.40359    5.0167716         2744    13.854387 
    8740    442.13156    -30280.12   -794.39517   -801.19602    6.8008488         2744    13.761689 
    8750    484.41135    6914.8484   -794.40365   -801.85485    7.4511947         2744    13.579914 
    8760    405.15477    42324.789   -794.41465   -800.64672    6.2320733         2744    13.438816 
    8770    420.22649    49427.546    -794.4296    -800.8935    6.4639058         2744    13.447598 
    8780    462.71312    23020.789   -794.43727    -801.5547    7.1174335         2744     13.62543 
    8790    489.49879   -16319.149   -794.44503   -801.97448    7.5294494         2744    13.879386 
    8800    343.74255   -43638.252   -794.43825   -799.72568    5.2874333         2744    14.068343 
    8810    383.10448   -44826.778     -794.445    -800.3379    5.8928967         2744    14.094751 
    8820    438.77938   -20150.288   -794.45282    -801.2021    6.7492857         2744    13.968861 
    8830    472.65476    19898.541   -794.46722   -801.73758    7.2703554         2744    13.794279 
    8840    342.73926    48352.708   -794.46556   -799.73756    5.2720007         2744    13.705376 
    8850    394.80625    44503.013   -794.47788   -800.55077    6.0728929         2744    13.778641 
    8860    493.54545    10770.106   -794.49542   -802.08712    7.5916949         2744    13.986516 
    8870    443.48458    -26914.75   -794.50373   -801.32539    6.8216609         2744    14.219695 
    8880    352.54114   -47306.129   -794.50626   -799.92903    5.4227727         2744     14.35545 
    8890    398.72777   -39643.699   -794.51528   -800.64849    6.1332135         2744    14.325311 
    8900    494.28348   -7997.2747   -794.52742   -802.13047    7.6030474         2744    14.162258 
    8910     418.3225    31631.033    -794.5268   -800.96142    6.4346188         2744    13.986467 
    8920    336.16282    51166.072   -794.53257   -799.70341    5.1708421         2744     13.94004 
    8930    440.00481    35601.789   -794.54621   -801.31435    6.7681352         2744    14.079654 
    8940    475.12957   -1731.2748   -794.55808    -801.8665    7.3084228         2744    14.330258 
    8950    400.75041    -35841.11   -794.56316   -800.72748    6.1643256         2744     14.55523 
    8960    334.27096   -47511.442   -794.56741   -799.70915    5.1417416         2744    14.642324 
    8970    412.96376   -31289.174   -794.57619   -800.92838     6.352191         2744    14.562248 
    8980    461.32835    5940.1124   -794.58399   -801.68012     7.096133         2744    14.378896 
    8990    422.85176    41681.707    -794.5968   -801.10109    6.5042877         2744     14.22682 
    9000    389.84339    50020.812   -794.60825    -800.6048    5.9965543         2744    14.227019 
    9010    444.73579    24126.766   -794.61674   -801.45764     6.840907         2744    14.405595 
    9020    462.60543   -14976.517   -794.62215   -801.73793    7.1157769         2744     14.66701 
    9030     356.5354   -42966.628   -794.62601   -800.11022    5.4842123         2744     14.86609 
    9040     341.4167   -45377.217   -794.63016   -799.88181    5.2516571         2744    14.900846 
    9050    432.12057   -21063.704   -794.64096   -801.28782    6.6468601         2744    14.773595 
    9060    476.64786     18850.26   -794.65246   -801.98424     7.331777         2744    14.589997 
    9070    350.60776     47918.08   -794.65876   -800.05179    5.3930336         2744    14.492741 
    9080    384.34439    44996.219   -794.67401   -800.58597     5.911969         2744    14.563459 
    9090    461.08037    11975.426   -794.68514   -801.77746    7.0923186         2744    14.779701 
    9100    455.89117   -25581.395   -794.69559   -801.70809    7.0124984         2744    15.027674 
    9110    342.19516   -46863.039    -794.6984   -799.96203    5.2636314         2744    15.177325 
    9120    388.41131   -40174.972   -794.70621   -800.68074    5.9745262         2744    15.154337 
    9130    445.54698   -9160.6184   -794.71233   -801.56572    6.8533847         2744    14.987985 
    9140    426.06488    30217.254    -794.7219   -801.27561    6.5537118         2744    14.803451 
    9150    326.84755    50870.499   -794.72831   -799.75587     5.027555         2744    14.747392 
    9160    413.52544    36787.869   -794.74402   -801.10485    6.3608306         2744    14.881508 
    9170    490.36488   -484.12204   -794.75749   -802.30026    7.5427716         2744    15.138807 
    9180    400.43657   -34973.189   -794.76132   -800.92082    6.1594983         2744     15.37892 
    9190     340.5167   -46907.768   -794.76252   -800.00033    5.2378133         2744    15.478164 
    9200    382.54693   -31970.286    -794.7705   -800.65482    5.8843206         2744    15.400259 
    9210    492.38531    4319.3727    -794.7893   -802.36315    7.5738498         2744    15.211939 
    9220    403.72085    39514.703   -794.79566   -801.00568    6.2100169         2744    15.052085 
    9230     385.6696    48948.734      -794.81   -800.74236    5.9323534         2744    15.046326 
    9240    425.77655    25211.483    -794.8151   -801.36438    6.5492767         2744    15.221158 
    9250    483.16651   -12800.689   -794.82168   -802.25373    7.4320466         2744    15.486602 
    9260      355.539   -41098.728   -794.82429   -800.29318    5.4688857         2744    15.698889 
    9270    302.90504   -44942.483    -794.8294   -799.48867    4.6592724         2744    15.747645 
    9280    430.30534     -22224.6   -794.84151   -801.46045    6.6189384         2744    15.627013 
    9290    468.75267    16443.586   -794.85148   -802.06182    7.2103335         2744    15.435972 
    9300    356.09589    46618.898     -794.856   -800.33345    5.4774518         2744    15.323026 
    9310    328.34026    44718.268   -794.86338    -799.9139    5.0505159         2744    15.385844 
    9320    446.31016    14083.864   -794.87724   -801.74237    6.8651237         2744    15.603672 
    9330    449.71372   -23242.849   -794.88943    -801.8069    6.9174772         2744    15.859499 
    9340    293.75503   -45719.413   -794.88957   -799.40809    4.5185273         2744    16.021424 
    9350    353.69017   -40729.136   -794.90072   -800.34117     5.440447         2744    16.006915 
    9360    474.07445   -10893.924    -794.9176   -802.20979     7.292193         2744    15.841276 
    9370    459.31794     28518.07   -794.92958   -801.99479     7.065209         2744    15.647848 
    9380    340.53652    49142.948    -794.9413   -800.17942    5.2381182         2744    15.581136 
    9390    420.77557    37219.467   -794.95306   -801.42541    6.4723518         2744    15.706112 
    9400    498.15754    1478.9632   -794.96139   -802.62402     7.662638         2744    15.967009 
    9410    398.21345   -33140.562   -794.95893   -801.08424    6.1253023         2744    16.223711 
    9420    322.02031   -46974.464   -794.96368   -799.91698    4.9533027         2744    16.340491 
    9430    381.51616   -33331.955   -794.97322   -800.84169    5.8684652         2744    16.269769 
    9440    500.81101    1926.0913    -794.9896   -802.69305    7.7034536         2744    16.077114 
    9450    393.59394     37087.52   -794.99499   -801.04924    6.0542452         2744    15.906243 
    9460    327.80485    49139.031   -795.00542    -800.0477    5.0422802         2744    15.884701 
    9470     456.8282      27377.3   -795.01744   -802.04435    7.0269119         2744    16.047984 
    9480    494.96267   -10447.588   -795.02947   -802.64296    7.6134946         2744    16.312406 
    9490    353.69962   -39955.787   -795.02845   -800.46904    5.4405924         2744    16.533445 
    9500    310.90841   -45444.747   -795.03369   -799.81607    4.7823798         2744     16.59854 
    9510    428.73715   -23982.408   -795.04494   -801.63976    6.5948166         2744    16.487375 
    9520    493.56582    14185.171   -795.05753   -802.64954    7.5920084         2744    16.291056 
    9530    317.64551    44660.148   -795.05483   -799.94084    4.8860097         2744    16.165314 
    9540    359.31492    45180.038   -795.06869   -800.59566    5.5269668         2744      16.2167 
    9550    469.51532    16602.016   -795.08452   -802.30659    7.2220646         2744    16.436812 
    9560    446.09612   -21303.877   -795.08962   -801.95145    6.8618315         2744    16.710034 
    9570    291.95849   -44786.312   -795.08913   -799.58002    4.4908931         2744    16.886281 
    9580    320.17753   -41114.349   -795.09217   -800.01713    4.9249572         2744    16.874476 
    9590    465.49925   -13132.213   -795.10588   -802.26617    7.1602895         2744    16.701216 
    9600    419.42176    25736.457   -795.11526   -801.56679    6.4515276         2744    16.495176 
    9610    331.65573    48528.327   -795.12488    -800.2264    5.1015143         2744    16.409402 
    9620    382.69675    39241.472   -795.13904   -801.02567    5.8866251         2744     16.51953 
    9630    500.13515    4274.4229    -795.1514   -802.84445    7.6930574         2744    16.785008 
    9640     371.4429   -31071.355   -795.14727   -800.86079    5.7135189         2744    17.064492 
    9650    300.21774   -47005.706   -795.15118   -799.76912    4.6179364         2744    17.208286 
    9660    409.63506   -34957.373    -795.1633   -801.46429    6.3009889         2744    17.152012 
    9670    441.75317   -906.08082   -795.16995   -801.96498    6.7950284         2744    16.953324 
    9680    402.14449    35750.755   -795.18263    -801.3684    6.1857694         2744    16.758653 
    9690    312.60853      49308.2    -795.1927   -800.00124     4.808531         2744     16.72142 
    9700     460.9511     29856.87   -795.20528   -802.29561    7.0903302         2744    16.879338 
    9710    468.36485   -7862.9051   -795.20891   -802.41328    7.2043681         2744    17.146525 
    9720    322.25523   -38689.242   -795.20607   -800.16298    4.9569162         2744    17.380211 
    9730    312.01673   -45891.589   -795.21243   -800.01185    4.7994281         2744     17.45722 
    9740    399.11198   -25685.259   -795.21681   -801.35594    6.1391235         2744    17.351923 
    9750    457.97275    11779.551   -795.22899    -802.2735    7.0445173         2744     17.14896 
    9760    313.15136    42957.263   -795.23727   -800.05415    4.8168808         2744    17.002384 
    9770    373.18861    46224.594    -795.2596   -800.99997    5.7403713         2744    17.037533 
    9780    464.30999    18844.327   -795.26069   -802.40269    7.1419964         2744    17.264279 
    9790    435.99968    -19029.99   -795.26401   -801.97054    6.7065284         2744    17.555851 
    9800    301.28332   -43879.023   -795.26358   -799.89791    4.6343271         2744    17.748464 
    9810      288.055   -41564.844   -795.26326   -799.69411    4.4308497         2744    17.746981 
    9820    460.15781   -14867.081    -795.2818   -802.35993    7.0781278         2744    17.573386 
    9830    428.24065    22765.852   -795.29813    -801.8853    6.5871793         2744    17.353776 
    9840    346.39936    47449.237   -795.30478   -800.63308    5.3283002         2744    17.244621 
    9850     396.4437    40366.418   -795.31119   -801.40927    6.0980801         2744    17.335993 
    9860    457.43086    6358.0397   -795.31665   -802.35283     7.036182         2744    17.599217 
    9870    376.02401   -29116.543   -795.31775   -801.10173    5.7839852         2744    17.889899 
    9880    295.98451    -46076.66   -795.32083   -799.87365     4.552821         2744    18.052288 
    9890    393.24228   -35640.912   -795.32981   -801.37865     6.048836         2744    18.006471 
    9900    457.10788   -3265.1485   -795.34405   -802.37526    7.0312139         2744    17.806427 
    9910    403.49322    33222.367   -795.35517   -801.56168    6.2065154         2744    17.604392 
    9920    325.53459    49479.992   -795.35085   -800.35821    5.0073592         2744     17.55505 
    9930    405.08995    31525.084   -795.35613   -801.58721    6.2310764         2744    17.705528 
    9940    441.75128   -5838.5653   -795.36588   -802.16088    6.7949993         2744    17.978003 
    9950    331.29611   -37323.617   -795.37086   -800.46684    5.0959825         2744    18.219521 
    9960    324.24935   -46096.474   -795.37465   -800.36224    4.9875896         2744    18.303402 
    9970    418.91317   -27071.626   -795.38283   -801.82653    6.4437044         2744    18.200421 
    9980    421.45667    9525.1158   -795.39037    -801.8732    6.4828285         2744    17.988899 
    9990    344.58929    42095.524   -795.39942   -800.69987    5.3004577         2744     17.82582 
   10000    315.94473    47028.925   -795.39952   -800.25937    4.8598483         2744    17.852661 
Loop time of 11.7115 on 1 procs for 10000 steps with 120 atoms

Pair  time (%) = 10.8686 (92.8031)
Bond  time (%) = 0.00281549 (0.0240404)
Neigh time (%) = 0.00402546 (0.0343719)
Comm  time (%) = 0.108621 (0.927476)
Outpt time (%) = 0.582678 (4.97527)
Other time (%) = 0.144721 (1.23572)

Nlocal:    120 ave 120 max 120 min
Histogram: 1 0 0 0 0 0 0 0 0 0
Nghost:    498 ave 498 max 498 min
Histogram: 1 0 0 0 0 0 0 0 0 0
Neighs:    0 ave 0 max 0 min
Histogram: 1 0 0 0 0 0 0 0 0 0
FullNghs:  2264 ave 2264 max 2264 min
Histogram: 1 0 0 0 0 0 0 0 0 0

Total # of neighbors = 2264
Ave neighs/atom = 18.8667
Ave special neighs/atom = 0
Neighbor list builds = 10
Dangerous builds = 0
unfix 			1
uncompute 		myDis
