
#--------------------------------------------------------------------------
#nve rescale
#--------------------------------------------------------------------------
	velocity 		all create ${T_run} ${seed} rot yes dist gaussian
	velocity 		all create 300 ${seed} rot yes dist gaussian
	velocity 		all create 300 66666 rot yes dist gaussian

	fix 			1 all nve
	fix 			2 all temp/rescale 1 ${T_run} ${T_run} 0.01 1.0
	fix 			2 all temp/rescale 1 300 ${T_run} 0.01 1.0
	fix 			2 all temp/rescale 1 300 300 0.01 1.0
	timestep		${dt}
	timestep		0.001
	thermo_style  		custom step temp press etotal vol
	thermo			1000
	run             	100000	
Memory usage per processor = 3.08818 Mbytes
Step Temp Press TotEng Volume 
       0          300    178738.73   -12581.384    23887.872 
    1000          300    18440.613   -12771.666    23887.872 
    2000          300    32299.106   -12788.804    23887.872 
    3000          300    10156.079   -12781.292    23887.872 
    4000          300   -5954.0986   -12780.003    23887.872 
    5000          300   -4781.5606   -12781.126    23887.872 
    6000          300    13406.304   -12780.393    23887.872 
    7000          300    20437.562   -12780.783    23887.872 
    8000          300    2836.6038   -12781.652    23887.872 
    9000          300   -3181.8312   -12780.372    23887.872 
   10000          300    4526.8857   -12781.108    23887.872 
   11000          300    9424.2707   -12782.809    23887.872 
   12000          300    8091.8836   -12783.112    23887.872 
   13000          300    392.61192   -12780.803    23887.872 
   14000          300    4618.4892   -12782.702    23887.872 
   15000          300    8916.2595   -12783.777    23887.872 
   16000          300     8042.622   -12782.228    23887.872 
   17000    300.00607    3941.6692   -12782.651    23887.872 
   18000          300    4755.6829   -12780.978    23887.872 
   19000          300    4697.8855   -12783.881    23887.872 
   20000          300    5850.1043   -12784.663    23887.872 
   21000          300    4281.1398   -12781.906    23887.872 
   22000          300    3935.1996    -12784.44    23887.872 
   23000          300     8722.962   -12782.487    23887.872 
   24000          300    4873.1797   -12782.642    23887.872 
   25000          300    5189.7126   -12783.648    23887.872 
   26000          300     7736.213   -12783.669    23887.872 
   27000          300     3568.747   -12780.824    23887.872 
   28000          300    3213.3147   -12782.461    23887.872 
   29000          300    10406.435   -12783.428    23887.872 
   30000          300    6089.2898   -12782.387    23887.872 
   31000          300    2074.3426     -12781.8    23887.872 
   32000          300    4849.3734   -12784.567    23887.872 
   33000          300    6221.8959   -12780.907    23887.872 
   34000          300    5607.2109   -12782.308    23887.872 
   35000          300    4900.1981   -12780.184    23887.872 
   36000          300    8262.5056   -12781.808    23887.872 
   37000          300    7198.8213   -12782.997    23887.872 
   38000          300    4563.6315   -12783.885    23887.872 
   39000          300    4105.8851   -12784.788    23887.872 
   40000          300    5965.3092   -12782.228    23887.872 
   41000          300    5357.3003   -12782.562    23887.872 
   42000          300    5519.6799   -12783.437    23887.872 
   43000          300    5626.6615   -12781.593    23887.872 
   44000          300    3303.8942   -12782.365    23887.872 
   45000          300     6286.529   -12782.716    23887.872 
   46000          300    8964.6508   -12783.455    23887.872 
   47000          300    7467.3471    -12782.26    23887.872 
   48000          300    3331.1316   -12781.492    23887.872 
   49000          300    4477.3355   -12783.929    23887.872 
   50000          300    6110.2137    -12783.23    23887.872 
   51000          300    5676.2351   -12783.316    23887.872 
   52000          300    6012.7823   -12782.449    23887.872 
   53000          300    4974.6769   -12782.657    23887.872 
   54000          300    5269.6528   -12782.876    23887.872 
   55000          300     7260.796   -12783.051    23887.872 
   56000          300    6056.6876   -12783.202    23887.872 
   57000          300    6808.3388   -12784.782    23887.872 
   58000          300    5571.6314   -12784.044    23887.872 
   59000          300     5264.733   -12783.482    23887.872 
   60000          300    4267.3881   -12784.303    23887.872 
   61000          300    5001.2594   -12784.536    23887.872 
   62000          300    9973.7363   -12782.027    23887.872 
   63000          300    7688.1449   -12784.244    23887.872 
   64000          300    7993.9423   -12785.184    23887.872 
   65000          300    3663.5488   -12783.257    23887.872 
   66000          300    3695.5936   -12784.013    23887.872 
   67000          300    7863.1329   -12781.851    23887.872 
   68000          300    8413.2133   -12784.198    23887.872 
   69000          300    4039.8104   -12784.635    23887.872 
   70000          300    5585.4399   -12784.207    23887.872 
   71000          300    8750.8505   -12782.621    23887.872 
   72000          300    8916.4701   -12783.901    23887.872 
   73000          300    3501.5474   -12784.403    23887.872 
   74000          300    5137.3829   -12783.483    23887.872 
   75000          300    7762.8197   -12782.615    23887.872 
   76000          300    7452.1779   -12783.315    23887.872 
   77000          300    7215.5417   -12781.571    23887.872 
   78000          300    3590.7828   -12780.303    23887.872 
   79000          300    7521.1807   -12784.459    23887.872 
   80000          300    8170.4828   -12781.328    23887.872 
   81000          300    3479.7308   -12784.962    23887.872 
   82000          300    3905.1144   -12782.744    23887.872 
   83000          300    7894.1207   -12783.302    23887.872 
   84000          300    6386.7406   -12784.207    23887.872 
   85000          300     5558.364   -12785.145    23887.872 
   86000          300    7216.9881     -12785.2    23887.872 
   87000          300    7764.5866   -12783.566    23887.872 
   88000          300    6291.6958   -12783.297    23887.872 
   89000          300    5618.1875   -12784.362    23887.872 
   90000          300    4144.3699     -12784.3    23887.872 
   91000          300    6649.7834   -12785.183    23887.872 
   92000          300    5879.7466   -12784.779    23887.872 
   93000          300    7967.6814   -12783.109    23887.872 
   94000          300    9870.0041    -12782.72    23887.872 
   95000          300    5273.6813   -12781.457    23887.872 
   96000          300    5747.4234   -12783.369    23887.872 
   97000          300     5675.465   -12784.271    23887.872 
   98000          300    7371.7285   -12784.774    23887.872 
   99000          300    4244.7698    -12783.94    23887.872 
  100000          300    5073.0063   -12784.527    23887.872 
Loop time of 2065.97 on 16 procs for 100000 steps with 1920 atoms

Pair  time (%) = 1868.73 (90.4529)
Bond  time (%) = 0.0451994 (0.00218781)
Neigh time (%) = 4.30337 (0.208298)
Comm  time (%) = 185.176 (8.96316)
Outpt time (%) = 0.00759214 (0.000367486)
Other time (%) = 7.70746 (0.373068)

Nlocal:    120 ave 125 max 116 min
Histogram: 2 2 0 3 2 4 0 1 0 2
Nghost:    4970.94 ave 4996 max 4948 min
Histogram: 2 0 3 3 2 0 2 0 1 3
Neighs:    52876.2 ave 55168 max 51051 min
Histogram: 3 1 1 1 4 3 0 0 2 1
FullNghs: 105752 ave 110194 max 101875 min
Histogram: 2 1 1 2 3 3 1 0 1 2

Total # of neighbors = 1692040
Ave neighs/atom = 881.271
Ave special neighs/atom = 0
Neighbor list builds = 507
Dangerous builds = 0
#	run             	1000
	unfix 			1
	unfix 			2
#--------------------------------------------------------------------------
#nve
#--------------------------------------------------------------------------
	fix 			1 all nve
	timestep		${dt}
	timestep		0.001
	thermo_style  		custom step temp press etotal vol
	thermo			1000
	run             	100000	
Memory usage per processor = 3.54976 Mbytes
Step Temp Press TotEng Volume 
  100000          300    5073.0063   -12784.527    23887.872 
  101000    293.37651    7358.2533   -12784.493    23887.872 
  102000    302.86312    7196.4323   -12784.533    23887.872 
  103000      300.592    5787.1269   -12784.512    23887.872 
  104000    300.25239    5459.3471   -12784.527    23887.872 
  105000    298.03337     8409.229   -12784.516    23887.872 
  106000    303.28259    8230.1597   -12784.525    23887.872 
  107000    308.35551    2491.6038   -12784.531    23887.872 
  108000    304.21757    8038.3091   -12784.534    23887.872 
  109000    296.53746    6385.6359   -12784.516    23887.872 
  110000    296.33715    1885.7548   -12784.534    23887.872 
  111000    300.23163    8579.6163   -12784.529    23887.872 
  112000    302.61753    7622.0282    -12784.53    23887.872 
  113000    292.86568    5781.7235   -12784.513    23887.872 
  114000    299.96851    4912.8185   -12784.529    23887.872 
  115000    300.02788     8764.586   -12784.527    23887.872 
  116000    293.19052    5355.2152   -12784.512    23887.872 
  117000    293.96779    6089.2353   -12784.503    23887.872 
  118000    290.74819     8920.691    -12784.49    23887.872 
  119000    294.53459    6369.2233   -12784.507    23887.872 
  120000    296.61218    5532.5257   -12784.525    23887.872 
  121000    298.22259    7336.2487   -12784.516    23887.872 
  122000    299.05472    7854.7904   -12784.538    23887.872 
  123000    300.21561    6164.7655   -12784.519    23887.872 
  124000    293.03454     5161.564   -12784.513    23887.872 
  125000    294.41223    8811.1702   -12784.506    23887.872 
  126000    296.68234    7946.7225   -12784.532    23887.872 
  127000    295.71287    5109.4771    -12784.52    23887.872 
  128000    297.30849    7193.3431   -12784.516    23887.872 
  129000     297.5177    9066.1672    -12784.54    23887.872 
  130000    303.18745    5639.5215   -12784.551    23887.872 
  131000    300.81397    5816.7318    -12784.52    23887.872 
  132000    294.66405     6940.877   -12784.525    23887.872 
  133000    295.35609     8382.337   -12784.531    23887.872 
  134000    299.45634    5527.1021   -12784.549    23887.872 
  135000    296.21283    3677.6987    -12784.52    23887.872 
  136000    298.66419    7079.1047   -12784.547    23887.872 
  137000    295.48438    7590.5997   -12784.544    23887.872 
  138000    298.39897    4820.0108   -12784.554    23887.872 
  139000    297.92323    6547.2542   -12784.522    23887.872 
  140000    293.38877     7567.811   -12784.506    23887.872 
  141000    295.11593     7365.656   -12784.521    23887.872 
  142000    299.89053    4143.4535   -12784.555    23887.872 
  143000    297.36205    5716.2276   -12784.516    23887.872 
  144000    292.63917    6946.1114   -12784.508    23887.872 
  145000    305.75278    9683.0334   -12784.568    23887.872 
  146000    294.39545    7668.2055   -12784.531    23887.872 
  147000    288.02205    4307.1271   -12784.504    23887.872 
  148000    292.61473    7632.3834   -12784.517    23887.872 
  149000    304.70426    7804.3456   -12784.547    23887.872 
  150000    293.64199    7143.5849   -12784.544    23887.872 
  151000    300.59707    6112.0414   -12784.526    23887.872 
  152000    290.76416    6329.3167   -12784.503    23887.872 
  153000    290.14047    6332.3021   -12784.525    23887.872 
  154000    297.84323    7021.3804   -12784.529    23887.872 
  155000     298.9077    5410.0484   -12784.543    23887.872 
  156000    300.65208    6399.0906   -12784.535    23887.872 
  157000    290.94465    9851.3487   -12784.514    23887.872 
  158000     289.8697    7861.6793   -12784.512    23887.872 
  159000    296.02364    5789.8395   -12784.548    23887.872 
  160000    299.73191    6753.4679   -12784.554    23887.872 
  161000    299.58656    7660.3152   -12784.554    23887.872 
  162000    298.89259    8268.0023   -12784.543    23887.872 
  163000    297.98701    5993.5674    -12784.54    23887.872 
  164000    302.06026    7280.3478   -12784.562    23887.872 
  165000     297.6621    4237.2768   -12784.529    23887.872 
  166000    302.45193    7884.9683   -12784.553    23887.872 
  167000    291.21458     6708.496    -12784.51    23887.872 
  168000    298.74638    4343.1267   -12784.522    23887.872 
  169000    295.92753    6452.2373   -12784.535    23887.872 
  170000    294.17023    7540.9288   -12784.529    23887.872 
  171000    297.96989    3529.2537   -12784.525    23887.872 
  172000    298.36783    6534.4426   -12784.543    23887.872 
  173000     302.1314    7764.8153    -12784.54    23887.872 
  174000    300.60307    8551.7976   -12784.537    23887.872 
  175000    296.79489    5975.3038   -12784.548    23887.872 
  176000    297.42771    5989.0128   -12784.518    23887.872 
  177000    294.65142    8733.1967   -12784.537    23887.872 
  178000    293.78786    4909.8155   -12784.538    23887.872 
  179000    298.87464    6716.3911   -12784.537    23887.872 
  180000    294.73794    7572.0062   -12784.503    23887.872 
  181000    304.51553     6997.113   -12784.561    23887.872 
  182000    302.14545    4570.3452   -12784.552    23887.872 
  183000    294.33094    6269.4192    -12784.53    23887.872 
  184000    297.41787    5723.9242   -12784.519    23887.872 
  185000    302.19905    6469.6814   -12784.556    23887.872 
  186000    295.39957    6929.3493   -12784.539    23887.872 
  187000    299.75397    4954.0198   -12784.539    23887.872 
  188000    303.78591    6608.8182   -12784.569    23887.872 
  189000    297.29468    4564.9553    -12784.52    23887.872 
  190000    299.67298    7223.3234   -12784.531    23887.872 
  191000    301.84556    5893.7675   -12784.544    23887.872 
  192000    294.83585    9115.7782   -12784.515    23887.872 
  193000    307.62196    5657.3104   -12784.551    23887.872 
  194000    296.92389     3673.059   -12784.528    23887.872 
  195000    307.43037    7635.6413    -12784.56    23887.872 
  196000    303.14851    9410.5374   -12784.547    23887.872 
  197000    295.20506    5706.2387   -12784.528    23887.872 
  198000    290.29792    2725.9059   -12784.508    23887.872 
  199000    298.45482    5522.9163   -12784.533    23887.872 
  200000    299.47577    7065.6413   -12784.539    23887.872 
Loop time of 2067.84 on 16 procs for 100000 steps with 1920 atoms

Pair  time (%) = 1873.71 (90.6117)
Bond  time (%) = 0.0422677 (0.00204405)
Neigh time (%) = 4.72243 (0.228375)
Comm  time (%) = 183.459 (8.872)
Outpt time (%) = 0.00824104 (0.000398533)
Other time (%) = 5.90361 (0.285496)

Nlocal:    120 ave 124 max 116 min
Histogram: 2 1 3 0 0 3 2 2 1 2
Nghost:    4983.12 ave 5028 max 4921 min
Histogram: 1 0 1 2 1 2 5 2 0 2
Neighs:    52876.2 ave 55385 max 50955 min
Histogram: 2 2 2 3 1 1 2 0 2 1
FullNghs: 105752 ave 110172 max 102204 min
Histogram: 3 2 1 1 2 2 1 1 1 2

Total # of neighbors = 1692038
Ave neighs/atom = 881.27
Ave special neighs/atom = 0
Neighbor list builds = 555
Dangerous builds = 0
#	run             	10000
	unfix 			1
#--------------------------------------------------------------------------
#kappa
#--------------------------------------------------------------------------
log 	log_kappa_${iseed}.lammps
log 	log_kappa_6.lammps
