
#--------------------------------------------------------------------------
#nve rescale
#--------------------------------------------------------------------------
	velocity 		all create ${T_run} ${seed} rot yes dist gaussian
	velocity 		all create 300 ${seed} rot yes dist gaussian
	velocity 		all create 300 55555 rot yes dist gaussian

	fix 			1 all nve
	fix 			2 all temp/rescale 1 ${T_run} ${T_run} 0.01 1.0
	fix 			2 all temp/rescale 1 300 ${T_run} 0.01 1.0
	fix 			2 all temp/rescale 1 300 300 0.01 1.0
	timestep		${dt}
	timestep		0.001
	thermo_style  		custom step temp press etotal vol
	thermo			1000
	run             	100000	
Memory usage per processor = 3.08818 Mbytes
Step Temp Press TotEng Volume 
       0          300    178738.73   -12581.384    23887.872 
    1000          300    16438.526   -12774.057    23887.872 
    2000          300    27617.037   -12788.043    23887.872 
    3000          300    3176.4534   -12779.302    23887.872 
    4000          300   -2151.2801   -12781.562    23887.872 
    5000          300    2106.4622     -12782.1    23887.872 
    6000          300    13202.947   -12782.081    23887.872 
    7000          300    14917.097   -12781.885    23887.872 
    8000          300    650.25606   -12781.387    23887.872 
    9000          300    419.71042   -12781.678    23887.872 
   10000          300    7948.8932   -12781.436    23887.872 
   11000          300     8675.021   -12782.058    23887.872 
   12000          300    4123.2098   -12783.826    23887.872 
   13000          300    1908.7713   -12781.152    23887.872 
   14000          300    6590.0087   -12782.576    23887.872 
   15000          300    7172.3644   -12783.519    23887.872 
   16000          300    6027.4271   -12781.929    23887.872 
   17000          300    3571.5135   -12782.735    23887.872 
   18000          300    5171.4745   -12781.781    23887.872 
   19000          300     4636.142   -12781.178    23887.872 
   20000          300    6241.1733   -12783.407    23887.872 
   21000          300    7047.2497   -12780.956    23887.872 
   22000          300    6491.0618    -12782.96    23887.872 
   23000          300    3418.1534   -12782.581    23887.872 
   24000          300    5444.4823    -12783.31    23887.872 
   25000          300    8381.2152   -12780.642    23887.872 
   26000          300    3886.3658   -12782.262    23887.872 
   27000          300    5486.4902   -12783.643    23887.872 
   28000          300    6544.3144   -12782.393    23887.872 
   29000          300    6110.3045   -12781.117    23887.872 
   30000          300    5802.4638   -12782.005    23887.872 
   31000          300    5659.1723   -12782.047    23887.872 
   32000          300     6096.769   -12782.762    23887.872 
   33000          300    5867.4683   -12781.229    23887.872 
   34000          300    5854.4953   -12782.078    23887.872 
   35000          300     5798.544   -12783.778    23887.872 
   36000          300    5026.3745   -12782.764    23887.872 
   37000          300    5359.1547   -12780.394    23887.872 
   38000          300    6740.7894   -12785.193    23887.872 
   39000          300    5657.8519   -12783.096    23887.872 
   40000          300    4667.1837   -12782.054    23887.872 
   41000          300    8098.0043   -12782.566    23887.872 
   42000          300    5761.0069   -12783.526    23887.872 
   43000          300    3291.6162   -12781.463    23887.872 
   44000          300    7586.3288   -12783.037    23887.872 
   45000          300     6848.133   -12781.663    23887.872 
   46000          300    5894.8571   -12782.533    23887.872 
   47000          300    6962.0271   -12782.236    23887.872 
   48000          300     4245.725   -12781.639    23887.872 
   49000          300    3828.3027   -12783.142    23887.872 
   50000          300    7767.5466   -12781.167    23887.872 
   51000          300    7343.5548   -12782.689    23887.872 
   52000          300     8231.673   -12783.385    23887.872 
   53000          300    5161.3736   -12781.279    23887.872 
   54000          300    6970.5758    -12783.03    23887.872 
   55000          300    7779.1745   -12784.343    23887.872 
   56000          300    7204.6527   -12781.794    23887.872 
   57000          300    6331.4795   -12781.556    23887.872 
   58000          300    5911.0145     -12783.3    23887.872 
   59000          300    3775.2799   -12784.193    23887.872 
   60000          300    5783.5975   -12783.127    23887.872 
   61000          300      7611.21   -12783.089    23887.872 
   62000          300    5033.2221   -12783.196    23887.872 
   63000          300    6204.2368   -12782.963    23887.872 
   64000          300    7730.4935   -12782.586    23887.872 
   65000          300    5669.1696   -12784.443    23887.872 
   66000          300    6092.9616   -12785.403    23887.872 
   67000          300    6333.5042   -12784.053    23887.872 
   68000          300    4140.9432   -12783.506    23887.872 
   69000          300      6130.95    -12781.95    23887.872 
   70000          300    6937.4064   -12781.843    23887.872 
   71000          300    4719.4729   -12785.007    23887.872 
   72000          300    6529.9168   -12783.749    23887.872 
   73000          300    6463.7722   -12784.796    23887.872 
   74000          300    7018.0335   -12782.246    23887.872 
   75000          300    5325.2053   -12783.058    23887.872 
   76000          300    4384.3968   -12782.255    23887.872 
   77000          300      6117.89   -12783.684    23887.872 
   78000          300    8111.4961   -12783.162    23887.872 
   79000          300    5081.3714   -12783.144    23887.872 
   80000          300    5979.5076   -12781.833    23887.872 
   81000          300     6039.154   -12783.078    23887.872 
   82000          300    5731.5542   -12782.936    23887.872 
   83000          300    7317.2455   -12783.671    23887.872 
   84000          300    8834.9626    -12783.69    23887.872 
   85000          300    4882.5829   -12782.089    23887.872 
   86000          300    5426.5952   -12784.197    23887.872 
   87000          300    8672.4584   -12782.756    23887.872 
   88000          300    5693.9295   -12780.073    23887.872 
   89000          300    6553.1119   -12780.877    23887.872 
   90000          300    9288.3093   -12781.339    23887.872 
   91000          300    6304.2006   -12783.264    23887.872 
   92000          300    7931.5961   -12782.066    23887.872 
   93000          300    7918.8527   -12782.076    23887.872 
   94000          300    6064.4967   -12782.283    23887.872 
   95000          300    5770.5888   -12783.587    23887.872 
   96000          300    5521.2369   -12784.184    23887.872 
   97000          300    9066.5937   -12783.248    23887.872 
   98000          300    6696.5901   -12783.248    23887.872 
   99000          300    4262.6878   -12782.663    23887.872 
  100000          300    5302.7636   -12783.534    23887.872 
Loop time of 2054.56 on 16 procs for 100000 steps with 1920 atoms

Pair  time (%) = 1865.25 (90.7855)
Bond  time (%) = 0.045516 (0.00221536)
Neigh time (%) = 4.23146 (0.205954)
Comm  time (%) = 177.854 (8.65651)
Outpt time (%) = 0.00803916 (0.000391283)
Other time (%) = 7.17942 (0.349437)

Nlocal:    120 ave 132 max 112 min
Histogram: 2 1 3 3 1 2 1 2 0 1
Nghost:    4964.69 ave 4995 max 4928 min
Histogram: 2 1 2 0 1 2 2 3 1 2
Neighs:    52871.8 ave 58330 max 49177 min
Histogram: 2 2 3 2 2 0 3 1 0 1
FullNghs: 105744 ave 116435 max 98121 min
Histogram: 2 2 3 2 2 0 3 1 0 1

Total # of neighbors = 1691898
Ave neighs/atom = 881.197
Ave special neighs/atom = 0
Neighbor list builds = 499
Dangerous builds = 0
#	run             	1000
	unfix 			1
	unfix 			2
#--------------------------------------------------------------------------
#nve
#--------------------------------------------------------------------------
	fix 			1 all nve
	timestep		${dt}
	timestep		0.001
	thermo_style  		custom step temp press etotal vol
	thermo			1000
	run             	100000	
Memory usage per processor = 3.54976 Mbytes
Step Temp Press TotEng Volume 
  100000          300    5302.7636   -12783.534    23887.872 
  101000    291.76231    7839.1902   -12783.522    23887.872 
  102000    299.06812     6500.733   -12783.535    23887.872 
  103000    298.22843    3979.2521   -12783.517    23887.872 
  104000    298.19638    8015.5306   -12783.541    23887.872 
  105000     305.3122    9258.2783   -12783.555    23887.872 
  106000     294.1922    5279.6916   -12783.539    23887.872 
  107000    303.47205    5447.8441   -12783.543    23887.872 
  108000    302.41709    8851.4846   -12783.576    23887.872 
  109000    299.22155     6832.859    -12783.53    23887.872 
  110000    297.95567    5218.8968   -12783.543    23887.872 
  111000    300.31237    6316.1613   -12783.552    23887.872 
  112000    296.93531    8035.2469    -12783.52    23887.872 
  113000    302.36918    4222.2562   -12783.553    23887.872 
  114000    303.66688    4309.4173   -12783.547    23887.872 
  115000    293.81824    8018.6077   -12783.521    23887.872 
  116000    298.95066    5674.5292   -12783.531    23887.872 
  117000    299.21877    7808.1247   -12783.534    23887.872 
  118000    297.68308     3811.897   -12783.538    23887.872 
  119000    299.64778     5850.957   -12783.551    23887.872 
  120000    301.17036     8563.253   -12783.551    23887.872 
  121000    300.70365    4871.1886   -12783.534    23887.872 
  122000    297.40515    5071.8405   -12783.527    23887.872 
  123000    298.21844    8472.2258    -12783.53    23887.872 
  124000    296.38587    6801.5871   -12783.515    23887.872 
  125000    295.92952     5211.295    -12783.52    23887.872 
  126000    295.30803    5897.1589   -12783.535    23887.872 
  127000       295.86    6687.5214   -12783.523    23887.872 
  128000     306.0407    8639.7254   -12783.552    23887.872 
  129000     296.8482    5932.4439   -12783.531    23887.872 
  130000    301.91534    6858.8531   -12783.551    23887.872 
  131000    298.96884    3929.8287   -12783.525    23887.872 
  132000    297.11795    3895.1838   -12783.543    23887.872 
  133000    299.20345    6102.0545    -12783.54    23887.872 
  134000    289.93243    10702.031    -12783.52    23887.872 
  135000    297.19042    5179.2556   -12783.543    23887.872 
  136000     298.6864    3350.1973   -12783.541    23887.872 
  137000    296.64649    9192.4878   -12783.551    23887.872 
  138000    296.92869    7379.8141   -12783.527    23887.872 
  139000    301.61282    5625.1067   -12783.548    23887.872 
  140000    299.96678    5022.7936   -12783.552    23887.872 
  141000    296.63402    6075.4566   -12783.532    23887.872 
  142000    292.15664    8053.9625   -12783.523    23887.872 
  143000    298.33852    4982.7328   -12783.531    23887.872 
  144000    297.45584    6267.0404   -12783.545    23887.872 
  145000    297.65865    6136.7257   -12783.515    23887.872 
  146000    300.04723    8140.7855   -12783.552    23887.872 
  147000    300.37744    5540.1724   -12783.545    23887.872 
  148000    304.48421     4923.361   -12783.524    23887.872 
  149000    304.89136    6038.0457   -12783.553    23887.872 
  150000    308.83527    7664.2755   -12783.586    23887.872 
  151000    300.45665    4957.7392   -12783.533    23887.872 
  152000     297.6555    6205.4913   -12783.553    23887.872 
  153000    293.96629    5395.3343   -12783.527    23887.872 
  154000    297.42192    10588.636   -12783.545    23887.872 
  155000    303.62244    5999.2262   -12783.559    23887.872 
  156000    308.40495    3543.0373   -12783.556    23887.872 
  157000    295.81611    8813.2893   -12783.547    23887.872 
  158000    295.96231    8810.6231   -12783.529    23887.872 
  159000    305.64984    5951.7912   -12783.565    23887.872 
  160000    294.02444    4631.3582    -12783.52    23887.872 
  161000    293.94185     6692.202   -12783.529    23887.872 
  162000    298.80055    6885.7463   -12783.538    23887.872 
  163000    298.85048    6234.3526   -12783.543    23887.872 
  164000    301.45805    7513.7072   -12783.546    23887.872 
  165000    293.43701    5864.2258   -12783.509    23887.872 
  166000    298.62003    4890.7678   -12783.535    23887.872 
  167000    300.06069    6578.8706    -12783.55    23887.872 
  168000    299.53391    6336.4582   -12783.551    23887.872 
  169000    297.29078    6624.1925   -12783.527    23887.872 
  170000    298.05099    6833.7772   -12783.537    23887.872 
  171000    297.59571    6473.6506   -12783.534    23887.872 
  172000    300.64729    7127.1101    -12783.55    23887.872 
  173000    298.24121    6643.4446   -12783.568    23887.872 
  174000    288.21839    6600.8704   -12783.514    23887.872 
  175000    292.38214    4832.6546   -12783.525    23887.872 
  176000    296.97365    7461.0686   -12783.537    23887.872 
  177000    305.91112    4735.7648    -12783.55    23887.872 
  178000    299.92383    4851.1448   -12783.532    23887.872 
  179000    305.54648    7640.1009   -12783.566    23887.872 
  180000    303.06922    7564.4746   -12783.554    23887.872 
  181000    295.88389    6376.7429   -12783.543    23887.872 
  182000    297.54891    8022.0623   -12783.532    23887.872 
  183000    298.12075    5029.2023   -12783.532    23887.872 
  184000    301.00242    6368.2494   -12783.538    23887.872 
  185000    300.42107    2173.7957   -12783.531    23887.872 
  186000    300.18755    7305.7043   -12783.538    23887.872 
  187000    297.35713    7788.0952   -12783.538    23887.872 
  188000    300.52427    4703.0722   -12783.547    23887.872 
  189000    305.13018    4438.0795   -12783.545    23887.872 
  190000    299.95444    8490.9543   -12783.547    23887.872 
  191000    296.86879    8960.5579   -12783.553    23887.872 
  192000    298.23876    5935.3131   -12783.537    23887.872 
  193000    299.26673    3974.6501   -12783.555    23887.872 
  194000    296.21511    4865.6154   -12783.534    23887.872 
  195000    297.73278     6380.752   -12783.534    23887.872 
  196000    302.39276     6347.344   -12783.542    23887.872 
  197000    301.95508    4006.0136   -12783.549    23887.872 
  198000    301.03644    5436.1492   -12783.561    23887.872 
  199000    296.63413    9194.3181   -12783.529    23887.872 
  200000    292.60336    8087.0163   -12783.516    23887.872 
Loop time of 2065.1 on 16 procs for 100000 steps with 1920 atoms

Pair  time (%) = 1870.09 (90.5569)
Bond  time (%) = 0.0468306 (0.00226771)
Neigh time (%) = 4.6397 (0.224672)
Comm  time (%) = 184.4 (8.92934)
Outpt time (%) = 0.00986753 (0.000477824)
Other time (%) = 5.91254 (0.286308)

Nlocal:    120 ave 126 max 114 min
Histogram: 1 1 1 5 0 3 1 1 0 3
Nghost:    4976.25 ave 5049 max 4909 min
Histogram: 2 2 2 2 1 0 1 3 1 2
Neighs:    52883.3 ave 56112 max 50473 min
Histogram: 2 3 3 1 1 1 1 1 1 2
FullNghs: 105767 ave 111709 max 99745 min
Histogram: 1 0 3 4 1 2 0 1 1 3

Total # of neighbors = 1692266
Ave neighs/atom = 881.389
Ave special neighs/atom = 0
Neighbor list builds = 546
Dangerous builds = 0
#	run             	10000
	unfix 			1
#--------------------------------------------------------------------------
#kappa
#--------------------------------------------------------------------------
log 	log_kappa_${iseed}.lammps
log 	log_kappa_5.lammps
