	reset_timestep  	0
	fix 			1 all nve
	compute   		myKE all ke/atom
	compute   		myPE all pe/atom
	compute   		myStress all stress/atom virial
	compute   		flux all heat/flux myKE myPE myStress
	variable  		Jx equal c_flux[1]/vol
	variable  		Jy equal c_flux[2]/vol
	variable  		Jz equal c_flux[3]/vol
	fix       		JJ all ave/correlate $s $p $d c_flux[1] c_flux[2] c_flux[3] type auto file J0Jt_${iseed}.dat ave running
	fix       		JJ all ave/correlate 10 $p $d c_flux[1] c_flux[2] c_flux[3] type auto file J0Jt_${iseed}.dat ave running
	fix       		JJ all ave/correlate 10 100000 $d c_flux[1] c_flux[2] c_flux[3] type auto file J0Jt_${iseed}.dat ave running
	fix       		JJ all ave/correlate 10 100000 1000000 c_flux[1] c_flux[2] c_flux[3] type auto file J0Jt_${iseed}.dat ave running
	fix       		JJ all ave/correlate 10 100000 1000000 c_flux[1] c_flux[2] c_flux[3] type auto file J0Jt_6.dat ave running
	compute 		myDis all msd 
	thermo_style 		custom step temp press vol c_myDis[4] v_Jx v_Jy v_Jz 
	thermo			1000
	timestep		${dt}
	timestep		0.001
	run			1000000
Memory usage per processor = 6.0234 Mbytes
Step Temp Press Volume myDis[4] Jx Jy Jz 
       0    296.67279   -45020.892    23887.872 8.4478166e-30  0.017539977 0.0031614686 0.00075497163 
    1000    299.68502   -45663.162    23887.872  0.042675122 -0.0024011463 -0.0014607283  0.022023449 
    2000    299.02234   -46598.387    23887.872  0.035013357 0.0054494092 -0.0083138602  0.016308731 
    3000    294.86513   -45070.272    23887.872  0.040633713   0.01120297  0.011306791 -0.0029746316 
    4000    286.81375   -45193.575    23887.872  0.045196457 0.0057967661  0.029125212  0.014166668 
    5000    298.25408    -47930.52    23887.872  0.033471642 -0.00080199527 0.0030405451 -0.0042583262 
    6000    301.82391   -46128.956    23887.872  0.041384363 0.0082043371 -0.0067834387 -0.021515506 
    7000    297.60686   -44537.143    23887.872  0.035010176 -0.0042003479 -0.013011314 -0.0060868408 
    8000    303.20925    -46906.95    23887.872  0.047314048  0.003832322 -0.0083605918 -0.0073572755 
    9000    295.86757   -45731.156    23887.872  0.049999987 -0.0022599251 -0.0055450287 0.0035226392 
   10000    297.40997   -45731.564    23887.872  0.043032504 -0.0080973831  0.015630456 -0.0022146026 
   11000    296.63075   -45412.429    23887.872  0.045081499  0.033182189 0.0085436926 -0.0061164023 
   12000    295.62701   -47376.948    23887.872  0.037684863 0.0095856952  0.010783405 -0.022088069 
   13000    296.81024   -44731.431    23887.872  0.043727389 -0.0090749524  0.017860065 -0.019088522 
   14000    300.86197   -46505.438    23887.872  0.042653713 -0.0087284921 0.0062076571 -0.0096403652 
   15000    298.46511    -45689.46    23887.872  0.042620527 -0.023940849  0.011007858 -0.0059999515 
   16000    294.71624   -46009.486    23887.872  0.043647956  0.012708285 -0.018789162 -0.002394146 
   17000    301.26235   -47193.224    23887.872  0.040831815 0.0096938518 0.0013714911   0.01893084 
   18000    289.40641   -46231.255    23887.872  0.041817724  0.010639011 -0.0090290662  0.015650942 
   19000    297.60348   -44763.288    23887.872  0.044114107 -0.0010441904 -0.0088112231 0.0060274302 
   20000    297.87135   -46621.664    23887.872  0.044173246 -0.0098588738 0.0066686863 0.0041048989 
   21000    296.69675    -45059.46    23887.872  0.047620947 -0.015968147  0.012560661  0.017645799 
   22000    302.93976   -46234.761    23887.872  0.040202727 0.0033525803 -0.0056290633 0.0041433624 
   23000    295.42067   -46382.915    23887.872  0.045194896 -0.010127676  0.021760881 0.0076262888 
   24000    291.56155   -45781.334    23887.872  0.038167507 -0.0095261925  -0.00378636   0.01067186 
   25000    297.68069   -47899.927    23887.872  0.035680956 -0.0002616281 -0.011359607 0.0022272087 
   26000    297.71926   -45431.509    23887.872  0.034263429  0.012717834 -0.0032176825 0.0052920841 
   27000    304.39937   -44543.349    23887.872   0.03588346 0.0074626995 0.0028438598  0.013993795 
   28000    300.11598   -47734.098    23887.872  0.034425667  0.017057053 -0.017301478 -0.016245815 
   29000    302.18891   -46062.799    23887.872  0.031149279  0.020190486 -0.0071040822  0.016963318 
   30000    295.51344   -45532.737    23887.872   0.03853106 -0.0012602184 -0.010559775 -0.0019841939 
   31000    298.68234    -44728.62    23887.872  0.032178718  0.017113803 0.0012534771 -0.0096534458 
   32000    301.77761   -48118.471    23887.872  0.027613791 -0.011510369  0.018612364  -0.01887049 
   33000    299.35586   -44815.106    23887.872  0.043621856  0.013661491 -0.0034763013 -0.024497635 
   34000    292.56484    -46085.31    23887.872  0.034587954 -0.001749272 -0.015267024  0.010472485 
   35000    292.11566   -46198.616    23887.872  0.042894599 -0.0015201936  0.017819056 -0.00046151755 
   36000    302.30448   -45162.629    23887.872  0.040232006 0.0027429513  0.010898908 0.0018699261 
   37000    294.98126   -47151.719    23887.872  0.041836388  0.018263693 -0.0089158775 -0.0094260837 
   38000    295.40496   -48116.055    23887.872  0.043758717 -0.0079561183 0.0019775375 0.0019987922 
   39000    295.00384    -42994.76    23887.872  0.037913599 -0.0024060251 -0.0068919677 0.0044997045 
   40000    296.64873   -46415.825    23887.872  0.042779461 0.0084629716 -0.017620774 -0.0013549916 
   41000    298.46528   -48081.027    23887.872  0.036150101 -0.0050700362 0.0043333415 0.0040766996 
   42000    296.76151   -44541.471    23887.872  0.032887165 -0.0095292283 -0.011632086  0.011186402 
   43000    301.08322   -46688.913    23887.872  0.037402131 -0.015087274  0.011626895  0.007089581 
   44000    293.10847     -47935.2    23887.872  0.039631957 0.0051514218 0.0047399435 0.0072940434 
   45000    301.69617   -46120.375    23887.872  0.046356399  -0.01940897 0.0074876546 -0.0077851663 
   46000    298.70117   -46113.366    23887.872  0.042715205 -0.025495574  0.012640315  0.016214464 
   47000    304.27419    -47385.49    23887.872  0.042863526  0.013144362  0.016762521 -0.0033339309 
   48000    297.05827   -44845.053    23887.872   0.04520832 -0.014353737 -0.013234494 -0.013180389 
   49000    304.17981   -46342.196    23887.872  0.041154813 -0.0087442576 -0.0031719875 -0.016302827 
   50000    295.27675   -46930.711    23887.872  0.046582087  0.020616624 -0.019334814 -0.001167267 
   51000    294.23055   -44573.473    23887.872  0.045515944 -0.0009392179 0.0010988875  0.018831439 
   52000    294.59265   -48228.409    23887.872  0.046386378 0.0023189839 -0.0050145828 -0.0040785802 
   53000     299.2755   -45621.261    23887.872  0.050995915  0.025846945 0.0092722748 -0.008379846 
   54000    298.78242    -45115.07    23887.872  0.039188389 -0.0043886469 0.0067409508  0.017670486 
   55000    296.13036   -47020.194    23887.872  0.051379635 0.0013024011 -0.0054894393 -0.00028129852 
   56000    298.35711   -46126.631    23887.872  0.037448976  0.011817715 0.0015357835 0.0059043037 
   57000     303.4485   -44949.146    23887.872  0.039040547  0.038732656  0.025299464 -0.0056243144 
   58000    303.03995   -45909.463    23887.872  0.037891299 -0.0011071787 0.0038376755 -0.018779709 
   59000    301.84652   -47547.079    23887.872   0.03213675  0.010756307  0.013020321 -0.014336655 
   60000    300.83059    -45735.16    23887.872  0.037951583  -0.01078886  0.014759088 0.0042449977 
   61000    297.73561   -45307.276    23887.872   0.03267982 -0.0022592989 -0.00045127711 0.0087114591 
   62000    297.92116   -47081.057    23887.872  0.040742208 -0.011651672 -0.0091382151 0.0025931215 
   63000    305.97669   -46286.806    23887.872  0.034482909 0.0070562903 -0.011798728 -0.012552098 
   64000    293.44663   -46027.072    23887.872  0.034673339 -0.0061241108 -0.0073610873   0.01534942 
   65000    300.59954   -46469.291    23887.872  0.037379039 0.00098777918  0.017478513  0.011387274 
   66000    299.92233   -46035.643    23887.872  0.035296706  0.006220384 -0.0048256786  0.018114458 
   67000      292.305   -46825.925    23887.872  0.045105796 0.0057145111 0.0056317494 0.0026659912 
   68000    298.89923   -45870.581    23887.872  0.035392132  -0.01490148 -0.012417064 0.0010247114 
   69000    292.61078   -45704.437    23887.872  0.041787201  0.017224393  0.010359186 -0.0043243469 
   70000    289.16434   -45582.775    23887.872  0.039923668 -0.018469496 0.0036749797 -0.014964391 
   71000    297.65554   -46439.495    23887.872  0.040812278 -0.00079458724 -0.010812504 -0.0027545809 
   72000     290.5192   -45096.657    23887.872  0.045112694 0.0036538161 0.0087543591 -0.016192683 
   73000    296.48714    -47200.23    23887.872  0.037087909  -0.01149638 0.00051950632  0.011948906 
   74000    298.46668   -46704.337    23887.872  0.038948497 -0.0076346558  0.029409838 -0.0023814722 
   75000    291.21453   -46060.038    23887.872  0.033181843 -0.0039907924 -0.0043442581  0.012342859 
   76000    300.71819   -46935.805    23887.872  0.035154721  0.012572925 0.0026458595 0.0081530523 
   77000      296.955   -45434.794    23887.872  0.038025374  0.023397842 0.0010102754 0.00061427609 
   78000    293.86902   -44033.391    23887.872  0.042389344 0.0056728454 -0.0042099372 -0.0016707401 
   79000    295.70353   -48498.414    23887.872  0.041526157 -0.00033339439 -0.017324284 -0.0043076152 
   80000    293.38676   -44474.505    23887.872  0.046099788 -0.010974685 0.0013689724 -0.012509536 
   81000    299.90368   -44933.636    23887.872  0.040413392  0.018090345  0.003137783  0.010504939 
   82000    298.82509   -46329.879    23887.872  0.039288478 -0.004406591 -0.0065598601 -0.019600416 
   83000    291.11126    -46840.94    23887.872  0.034046211 0.0041843116 0.0072686065 0.0035572281 
   84000    299.11514   -45075.085    23887.872  0.041313733   0.01684565 -0.0036349424 0.0013998027 
   85000     299.7271   -46831.813    23887.872  0.038367019  -0.01072758  0.011199391  -0.00314087 
   86000    297.43032   -45457.966    23887.872  0.041364843 -0.0073628123 -0.018688892  0.011973204 
   87000    305.33388   -47006.716    23887.872  0.040764418  0.015719367 -0.010069246  0.011476758 
   88000    297.31396   -47241.873    23887.872  0.038260532  0.019353055 0.0043644551  0.010945816 
   89000    297.39418    -45917.32    23887.872  0.037835414  0.011741532 -0.039770266 -0.00083430806 
   90000    295.85034   -44695.921    23887.872  0.039789264 6.6017492e-05 0.0097117061 -0.0073518156 
   91000    299.43244    -47058.45    23887.872   0.04087642 0.0087185038  0.013530938  0.016377319 
   92000    299.05917   -47065.514    23887.872  0.044427203 -0.017382591 0.0070873958  0.017246423 
   93000     294.6131    -45996.94    23887.872  0.041061658 -0.00015661936 -0.0096970279 -0.013184542 
   94000    293.49829   -45858.586    23887.872  0.041432269 -0.00081245856  0.003887112 0.0026568492 
   95000    298.29025   -46488.044    23887.872   0.04198804 -0.0076448892 -0.017939695 -0.00064246387 
   96000    299.98927   -44662.455    23887.872   0.04495947 -0.0048525764 0.0090734253 0.0031257561 
   97000    295.99668   -47145.203    23887.872  0.037421511 -0.016541604 -0.0098574527 0.0048685088 
   98000    289.44963   -46389.444    23887.872  0.049474897 0.00096504939  0.021510079  0.005049487 
   99000    299.29346   -46213.629    23887.872  0.037929534 -0.0089361341 -0.011369457 0.0025339977 
  100000    302.49886   -45534.921    23887.872  0.039663336 -0.0018019252  0.012009014 -0.011687356 
  101000     299.0744   -44135.848    23887.872  0.042339573 0.0054832266 0.0098111602 0.0072673971 
  102000    297.17042   -48161.839    23887.872  0.038194845 -0.030609974  0.010221181 -0.010202032 
  103000    300.46139   -44791.675    23887.872  0.044582664  0.014318224  0.021432411  0.015067372 
  104000    300.74523   -46642.319    23887.872  0.039684115 0.0092146797  0.024530808  0.034934643 
  105000    295.04079    -44428.66    23887.872  0.044292259 -0.012025351 -0.019933654  0.016353052 
  106000    299.79278   -46152.769    23887.872   0.04302968  0.013347264 0.0084098446 -0.0030798076 
  107000    292.43968   -46466.228    23887.872   0.04789008 0.0032081498  0.027812931 -0.0070254819 
  108000    296.14437   -47323.689    23887.872   0.04562105 0.0043043089 -0.0081688806 -0.017462035 
  109000    297.69159   -45020.328    23887.872  0.044379394 0.0016347717  0.015805235 -0.0029643979 
  110000    301.45586    -45083.07    23887.872   0.04496956 -0.0031200769  0.014095442 0.0046713721 
  111000    292.62453   -45428.379    23887.872   0.03711603  -0.01159541 -0.0072361611 0.0064105983 
  112000    294.85696   -47164.394    23887.872  0.037413818 0.0024890177 -0.0089698855 -0.034396095 
  113000    302.57275   -44965.548    23887.872   0.03811732 -0.022758021 -0.018176664 0.00032550799 
  114000    293.74548   -47062.719    23887.872  0.044669106  0.006077306  0.012894636  0.022992422 
  115000    303.23447   -46709.486    23887.872  0.043190472 -0.0018672093 -0.0064134433 -0.0044713757 
  116000    299.73135    -44581.93    23887.872  0.043950096 -0.014476494  0.010490404 -0.0088396924 
  117000    295.46154   -47793.849    23887.872  0.041294453 0.0016123291 -0.020207517  0.042469326 
  118000    294.54333   -46673.578    23887.872  0.036344638 -0.0025431312 -0.018338787 -0.00087455504 
  119000    298.27636    -45465.78    23887.872  0.033170109   0.03312819   0.01844608  0.018728026 
  120000     300.9845    -46177.82    23887.872  0.038910396 -0.0026442354  0.017474581 -0.007353126 
  121000    303.43762    -45746.49    23887.872  0.040150578 -0.010902385 0.0061046948  -0.02312351 
  122000    300.76139   -45121.342    23887.872  0.038641207  0.010523966 -1.7144168e-06 0.0011618462 
  123000    303.08175   -46958.053    23887.872  0.044215799 -0.008927791 -0.015954518 -0.0098229386 
  124000    299.68162   -45823.733    23887.872  0.036247329  0.017349919  0.001343157  0.026160637 
  125000    293.10209   -45836.938    23887.872  0.036336707 0.0025454104 -0.0092090077 -0.014541011 
  126000    296.86035   -47159.091    23887.872  0.038885064  0.010122313 -0.0052925497 -0.020721667 
  127000    294.69762   -45342.638    23887.872  0.038353707 0.0071964731 -0.00058825343  0.019212277 
  128000    294.39308   -44287.896    23887.872  0.040236809 0.0047416707 -0.022192557  0.010779214 
  129000    297.65082   -47570.463    23887.872  0.039430738  0.004213987  0.017924544 0.00081066701 
  130000    300.33361   -46384.869    23887.872  0.044394851  0.002039869 -0.0033847516 0.0084876328 
  131000    295.96723   -46815.366    23887.872  0.036719136 0.0032759214  0.012605763  0.018593115 
  132000    297.33251    -46338.13    23887.872   0.03599604 -0.014557145 0.0071292317   0.01440575 
  133000    300.25883   -44718.841    23887.872  0.040950398 -0.013610712  0.014630169 0.0042983394 
  134000    304.90199    -46086.98    23887.872   0.03551757 -0.043157266 0.00013616067 -0.015451506 
  135000    301.52779     -47444.1    23887.872  0.040416103 -0.0034993582  0.021302501  0.014079795 
  136000    296.57478   -46398.912    23887.872  0.048658983 -0.0079961576 0.0063646674 -0.0092477241 
  137000    300.00061    -45508.01    23887.872  0.039627395 0.0078373402 0.0018778969 -0.012775719 
  138000    295.37761   -45964.835    23887.872  0.041414656 -0.011220548 -0.00013117561 -0.015791135 
  139000    297.09814   -45492.132    23887.872  0.041074626  0.022803874   0.01526095 0.00083778812 
  140000    289.24946   -45075.782    23887.872  0.039967466 -0.016453466 -0.017686915  0.014251553 
  141000    292.45767   -46253.526    23887.872  0.046998515   0.01552143 -0.0091740381  0.013743011 
  142000    298.66203   -46401.249    23887.872  0.042254748 -0.0012933978 0.0023625663 -0.016254108 
  143000    294.62194   -44993.933    23887.872  0.040545384 0.0036998876  -0.01184526  0.018785541 
  144000    293.15454   -46784.464    23887.872  0.042193156 0.0028745957 -0.0051387623  0.012685859 
  145000    295.66586   -45319.852    23887.872  0.036786241 0.0096614549 0.0075745367  0.012533736 
  146000    293.58311   -46487.132    23887.872  0.038780585  0.013573576 -0.019331197 -0.0007400799 
  147000    291.37589   -47491.164    23887.872  0.038353901 -0.0078805551 -0.0052225326  0.013902601 
  148000    296.94937   -45692.616    23887.872  0.039580722 0.0056205277 0.0027889957  0.025018297 
  149000    295.07816   -45864.852    23887.872  0.037741918 -0.020528214 -0.013410598 -0.0052782332 
  150000    300.98233   -46872.173    23887.872   0.03844882 -0.011731231 -0.0079015571 0.0090763122 
  151000     288.9559   -45918.957    23887.872  0.045523465 -0.016146187 -0.0088894299  0.008471039 
  152000    296.05437   -45585.844    23887.872  0.033425715 -0.0084857393 -0.0084190626 -0.0087950735 
  153000    300.50825   -45883.453    23887.872   0.03791124 0.0099537419 -0.0024769282 0.0063202035 
  154000    295.76455   -46547.859    23887.872  0.042264802 -0.0068457623 0.0032224448 0.0086367507 
  155000    299.51741   -47391.966    23887.872  0.039126034 0.0093650983 -0.00057884878 0.0061086207 
  156000    296.27392   -44591.204    23887.872  0.049055929  0.017739257   0.01895632 -0.016475722 
  157000    305.06064   -46989.081    23887.872  0.051497798 0.0082072127 0.00011317095  0.011910336 
  158000    298.47726   -45709.654    23887.872  0.045463278  0.015634306 -0.010172045 -0.0092650532 
  159000    303.47827    -45859.75    23887.872  0.040063066   0.03147409  0.010612922 -0.016700949 
  160000    293.94339    -46225.78    23887.872  0.039368525 -0.0039747886 -0.0047407655 -0.010431641 
  161000    301.74394    -46943.05    23887.872  0.040126328 -0.014647851 -0.0014863026 0.0084957917 
  162000    299.88496   -44808.387    23887.872  0.035949635 -0.0082465211 0.00066342845 -0.0042384833 
  163000    300.41154   -46262.389    23887.872  0.043816441  -0.01136982 -0.0067269167 -0.0065083232 
  164000    303.44633   -47416.136    23887.872  0.045820736 -0.00064332459 0.00076923698 -0.0069269725 
  165000    304.24994   -45187.452    23887.872  0.038956907 0.0027813526 0.0085328605 -0.0033118332 
  166000    291.43588   -46031.883    23887.872   0.03548318 0.0042644855 -0.0010685077 -0.017517255 
  167000    302.56739   -45492.281    23887.872  0.035998251  0.016801772   0.00671342 -0.0036324709 
  168000    298.16799   -45506.283    23887.872  0.037329141 0.0044776376  0.030703181  0.012750149 
  169000    301.53785    -48319.58    23887.872  0.041621347 -0.0053636205  0.014081181  0.027413192 
  170000    290.91629   -44746.411    23887.872   0.04538547 0.00032258308  0.027909636 -0.00060469868 
  171000    296.12178   -45182.214    23887.872   0.04839885 0.0068186179 0.0038807859  0.019746947 
  172000    297.72514   -48801.313    23887.872  0.041402159 -0.029950749   0.03128188  0.007083422 
  173000    301.16484   -44395.113    23887.872  0.035790875 -0.007338918 -0.0057689819  -0.02476094 
  174000    297.31573   -45402.375    23887.872  0.035729605 -0.0022924309 -0.00067379083 -0.0049129316 
  175000    303.21778   -47032.114    23887.872  0.035937496 0.0081823928 -0.017149078  0.015592753 
  176000    295.32379    -46026.67    23887.872  0.036774308 -0.0010430359 -0.0027121257 0.0093088212 
  177000    297.28019   -43571.417    23887.872  0.037916821 0.0049765673  0.011695825  0.016451548 
  178000    303.05987   -48427.081    23887.872  0.036114527 0.0085680987  0.024210701 -0.012070197 
  179000    297.61702   -43817.132    23887.872  0.032727322  0.015866497 0.0090163158 -0.0010716702 
  180000    292.13456   -46559.116    23887.872  0.034792482 -0.014206649 0.0045132502 -0.0078196314 
  181000    300.73784   -46181.772    23887.872  0.038568744 -0.010775762 -0.0027115141 -0.017088762 
  182000    294.65502   -45782.276    23887.872  0.038386633 -0.027074813 0.0070860509 0.0014697752 
  183000    298.25317   -46196.894    23887.872  0.044239508 -0.0037257785 -0.0095266163  0.017469371 
  184000    293.06201   -46481.719    23887.872  0.041481865 -0.0030549327 0.0079540378 -0.013750212 
  185000    300.06484   -45238.359    23887.872  0.039708198 0.0026796598  0.005254836  0.018501228 
  186000    294.42791   -47730.872    23887.872  0.042657111 -0.00042017824 -0.0082857851 -0.007716412 
  187000    298.96374   -45423.663    23887.872  0.040234862 -0.004061602 0.0057367513  -0.01603002 
  188000    295.92741    -46197.76    23887.872  0.037105838 -0.012742027 -0.0045213111 -0.0077833126 
  189000    289.77341   -47849.248    23887.872  0.042249483 -0.018098496  0.025534635 0.0066296452 
  190000     300.0309   -45293.081    23887.872   0.03842295  0.011261357  0.021516853 0.0017614991 
  191000    302.72807   -45775.077    23887.872  0.039741947 -0.0045513355  0.031246776 0.0024940502 
  192000    300.97679   -48369.515    23887.872  0.030612557 -0.0087774552  0.019735032  0.003267092 
  193000    297.03391    -45083.24    23887.872  0.038345942 -0.0057902251 0.0073504584 -0.015474551 
  194000    305.79897   -43794.932    23887.872   0.03681673 0.0068650084 -0.0091725635 0.0046162738 
  195000     297.0016   -48121.982    23887.872  0.034412366  0.005860001 -0.021606375 -0.0034454001 
  196000    295.71073   -46497.639    23887.872  0.044079387 -0.0085109163 -0.038085587 -0.023505333 
  197000    298.50468   -44154.844    23887.872   0.04516612 0.0014386108 -0.00017924665 -0.008097758 
  198000    292.92257   -47496.254    23887.872  0.045081228  0.023706561 -0.027002703 -0.0045568674 
  199000    296.78424   -46966.739    23887.872  0.039682955 -0.010373343  0.015496499 0.0080795525 
  200000     296.4742   -45890.214    23887.872   0.04045557 0.0089986442 -0.003159386  0.023688475 
  201000    302.30381   -45417.322    23887.872  0.040457486 0.0085797486  -0.01274369  0.012413018 
  202000    294.11815   -46682.887    23887.872  0.032456119 0.0049777516 -0.0057591702 0.00056768528 
  203000    295.96024   -44719.109    23887.872  0.038968563 -0.0063793321 0.0029374013 -0.016791075 
  204000      301.071   -45744.353    23887.872  0.039857785  0.013865565  0.013900298 0.0039871903 
  205000    302.94413    -46799.56    23887.872  0.034700519  0.015795484  0.029325009 -0.012996575 
  206000    287.60731   -45784.961    23887.872  0.037502995 0.0021283258 0.0034434293 -0.0030364666 
  207000    305.35421   -46779.707    23887.872  0.035836268 -0.0025041098 0.0098431741  0.010009188 
  208000    300.90794   -44900.873    23887.872  0.037133055 -0.0097925067  0.000196228 -0.0031365567 
  209000    304.55576   -45529.566    23887.872  0.036903483 0.0079450305  0.025689041 -0.011560421 
  210000    297.15338   -47035.972    23887.872  0.040794092  -0.01339321 -0.0058378397  0.004011834 
  211000    297.88918   -46646.641    23887.872  0.042875131  0.011685615  0.019105942 -0.021622703 
  212000     296.5387   -43371.443    23887.872  0.045427849  0.031132306 -0.015466542 -0.00055676594 
  213000    300.23575   -46687.651    23887.872  0.046540721 -0.0019515281 0.0006177665  0.011825997 
  214000    301.15604   -46938.631    23887.872  0.045717304 0.0039105246 -0.0094424745 -0.0066870099 
  215000     297.6176   -46520.099    23887.872  0.042138559 0.0074353329 0.0065585473 0.0053367745 
  216000    297.10531   -45733.072    23887.872  0.042956839 -0.0015722931 0.0029788274 -0.0035114268 
  217000     298.2384   -47264.548    23887.872  0.035179253 -0.013587522 0.0073062882 -0.0090988088 
  218000    297.59986    -46116.73    23887.872  0.041631728 -0.0061780696 0.0032502396 0.0018694653 
  219000    301.46571    -46146.33    23887.872  0.035575119  0.012622271 -0.0024981803 0.0045493336 
  220000    308.25269   -45730.468    23887.872  0.035679496 0.0079243404 0.0031347062 -0.020918108 
  221000    297.49822   -45766.881    23887.872  0.040870167 -0.010535501 0.0066213236 0.0043565257 
  222000    296.05179   -46477.314    23887.872  0.042873944 0.0030955009 -0.016878906 -0.011455982 
  223000     302.3254   -46985.106    23887.872  0.043240713  0.012197037 -0.0010113315 -0.020676923 
  224000    306.35792   -45363.935    23887.872  0.042644727  0.020913316 0.00031870348  -0.00405147 
  225000    300.52803   -47204.211    23887.872  0.044281859 0.0029496568 0.0059699674 -0.021427077 
  226000    294.20007   -46432.266    23887.872  0.042079916  0.026530267 -0.015953694 -0.0080266674 
  227000    298.16867   -45663.642    23887.872  0.038957687  0.002420456  0.002279959 0.0042860672 
  228000    294.26995   -45027.428    23887.872   0.04282076 -0.015022491 -0.013169848 -0.0061148604 
  229000    302.73062   -47600.342    23887.872  0.041882758 -0.0046721524  0.018063566 -0.0034656223 
  230000    303.63136   -44627.971    23887.872  0.041254084 -0.0016890427   0.01027314  0.016724498 
  231000    297.82423   -45979.705    23887.872   0.03728389 -0.0097101294 -0.024487462  0.012512803 
  232000    300.26344   -46979.844    23887.872  0.031690218 -0.0018363953 -0.013709092  0.021807487 
  233000    298.56464   -45619.964    23887.872  0.032131657  0.011159019  0.022528734 -0.013362687 
  234000    295.79652   -46179.969    23887.872  0.029898832 -0.0079031635  0.012943329  0.011553532 
  235000    294.60271   -45860.682    23887.872  0.037878984 -0.012617671 0.0046938365 0.0063329831 
  236000    293.56945   -44782.317    23887.872  0.039293026 -0.0013672667  0.017577732  0.010263097 
  237000    292.25278   -46569.111    23887.872   0.03718989 -0.00076082314 -0.0098806973 0.00037566914 
  238000    293.51401   -48038.036    23887.872  0.040670604  0.027831418   0.01277266 -0.0081172348 
  239000     299.6375    -43502.47    23887.872  0.035793678 -0.021822117 -0.0029860019 0.00058655499 
  240000    292.74518   -46638.478    23887.872  0.038086046 -0.006533153 0.0037839849 -0.0089164384 
  241000    300.29196   -46873.302    23887.872  0.041180419  0.024390336 0.0023542112  0.018007538 
  242000    295.12337   -46126.364    23887.872   0.04130822 0.0053491419 -0.018138057 -0.0095246549 
  243000    298.69746   -44637.451    23887.872  0.041635166 0.0045488235   0.01977692 -0.031649465 
  244000    301.04304   -48282.233    23887.872  0.037636131 -0.0065241645 0.0047129271  0.019815486 
  245000    293.23032    -44766.31    23887.872   0.04232467 -0.017390448  -0.01000634 0.0046783185 
  246000    294.18942   -46600.182    23887.872  0.038133206 0.0088540523 -0.007367855  0.022686649 
  247000    296.60912   -48006.642    23887.872  0.035320926 0.0033889732 0.0098622532 0.0089838925 
  248000    296.59044   -44792.191    23887.872  0.043957551  -0.01831712 -0.011651648 -0.014803516 
  249000    296.04764   -45447.368    23887.872  0.033148649  0.010967178 0.0072440811 -0.017875114 
  250000    297.66809   -47734.099    23887.872  0.039760413 -0.00040575973  0.015348734 0.0092556983 
  251000    296.82371   -46525.051    23887.872  0.041419021 -0.0014177667 -0.0079303044 -0.022502115 
  252000    288.75452   -45352.569    23887.872  0.033492045 0.0085433843 -0.015407807 -0.013495192 
  253000    300.95915    -45877.09    23887.872  0.042054123  0.008205432 0.0013801128 -0.0083712561 
  254000    297.19327   -47506.408    23887.872   0.03916265 -0.020497332 0.0013136516  -0.01138022 
  255000     293.5057   -45501.156    23887.872  0.046741486 -0.017564329  0.010892583 -0.0074224851 
  256000    300.19309     -46472.3    23887.872   0.04312329   0.01349337 -0.0009154528 -0.006881192 
  257000    297.65603   -46215.932    23887.872  0.044402401 0.0014624498 -0.010069704 -0.0037775373 
  258000     297.3847   -46007.741    23887.872  0.036196542 -0.0055351254 -0.0086638437 -0.0029135956 
  259000     290.5783   -45487.129    23887.872  0.038290073 -0.0065131391 -0.011537036 -0.014949189 
  260000    293.71251   -48525.609    23887.872  0.035188676 0.0074567556 -0.0028506859  0.011328676 
  261000    298.50655   -42471.632    23887.872   0.03477494 -0.0075604007 -0.011288994 0.0093829069 
  262000    297.41468   -47260.404    23887.872  0.038279456 -0.025501781  0.023164832   -0.0192018 
  263000    293.22566   -46439.463    23887.872  0.036584176 0.0010567486  0.010840743 0.0075528249 
  264000    291.49985   -45440.935    23887.872  0.039214277 -0.012277364  0.011522708 -0.013394015 
  265000    300.33571   -46429.299    23887.872  0.031550749 -0.0039013849 -0.0098617379 -0.00061471871 
  266000    294.88582   -47129.001    23887.872  0.036309108 0.0011998217  0.013919567  0.012849132 
  267000    295.95665   -45295.843    23887.872   0.03949336 -0.0070055289 0.0047449583 0.0052420993 
  268000     296.4996   -47190.951    23887.872  0.036133451  0.010337227 0.0019303692  0.019922656 
  269000    293.06986    -45882.27    23887.872  0.046871749  0.009878739 0.0086966152 -0.0088881024 
  270000    295.95305   -46878.747    23887.872  0.039434299  0.001672194 0.00051554607  0.018998556 
  271000    301.89943   -45534.552    23887.872  0.043789417 -0.0023624749 -0.0078024412 -0.019893269 
  272000    296.44981   -45069.851    23887.872  0.032692906   0.01662302  0.023987933 -0.018392361 
  273000    289.26277   -46271.594    23887.872  0.043645273 -0.011715248 0.0033070457 0.0017411175 
  274000    297.07109   -46745.987    23887.872  0.036911084   -0.0138897 -0.0017314006   0.01607576 
  275000    301.70799   -46432.878    23887.872  0.032416803 0.0037907544 0.0021636983  0.020141517 
  276000    291.29379   -46960.587    23887.872  0.040860332   0.01162247 0.0049114854 -0.012454946 
  277000    296.25323   -46043.978    23887.872  0.031371869  0.011888074  0.011448302 -0.017739567 
  278000    292.64121   -46275.777    23887.872  0.037221104 -0.0089894699 -0.0040032922 0.0035843423 
  279000    298.91655    -45796.45    23887.872  0.032620881 0.0030349719 0.0002520615  0.011956842 
  280000    303.12592   -47213.331    23887.872  0.036981105 -0.013641908 -0.0073411668 -0.011251657 
  281000    290.09869   -46236.499    23887.872  0.041740648  0.012443791  0.018293491 -0.002980338 
  282000    300.84461   -46501.945    23887.872  0.042385813 0.0071307244  0.011084844 0.0046414554 
  283000    300.19663   -45369.193    23887.872   0.04583872 -0.012416974 0.0053562854 -0.0083828925 
  284000    307.27572    -48719.75    23887.872  0.038068305 -0.0050700647 -0.011661854 -7.1633903e-05 
  285000    298.93153   -44961.731    23887.872   0.03862398 -0.0061572854 0.0032397981 0.0042883663 
  286000    299.27973   -44662.159    23887.872  0.038881159  -0.00260119 -0.012411747 -0.0078528765 
  287000    293.38897   -48732.028    23887.872  0.036489357 -0.0022595057 -0.0043918208 0.0086633704 
  288000    294.71412   -43601.901    23887.872  0.038278135 -0.0034311964  0.010551614 0.00082936795 
  289000     292.8776   -46654.853    23887.872  0.032186809 -0.0005539697 0.0024655201 0.0038422923 
  290000    294.82568   -46321.553    23887.872  0.034080858 -0.014937452 0.0051710499  0.011322709 
  291000    298.30693   -45534.181    23887.872  0.033680736 0.0080879968 -0.0047800035 -0.012844506 
  292000    295.99221   -49264.621    23887.872  0.034373476  -0.02791946 -0.0025682292 -0.00019680088 
  293000     304.1557   -46227.885    23887.872  0.035557612 0.0027375323  0.010371099 -0.0039235698 
  294000    294.23616   -43859.157    23887.872  0.035166914 -0.014318014  0.017234829 0.0011234399 
  295000    287.82913   -46429.009    23887.872  0.039812946 -0.012546568 -0.0019296769 0.0097823889 
  296000    298.46581   -48634.429    23887.872   0.03833962 -0.0041168009 0.00089349628 0.00044691891 
  297000    298.51111   -44386.575    23887.872  0.040593987 -0.025306715 -0.0042007672 -0.012209255 
  298000    298.93614   -47444.909    23887.872  0.038482086 -0.0075761211  0.017241714 0.0084670655 
  299000    295.09809   -46520.672    23887.872   0.03546268  0.021512937 -0.0045155308 0.0050016036 
  300000    295.75876   -45567.577    23887.872  0.036611868  0.021537765 -0.0038260492 -0.028034425 
  301000    298.48427   -47816.524    23887.872  0.031708823 0.0036875634 0.0044356347 0.0023446142 
  302000     299.6116   -45687.931    23887.872  0.037143182 0.0018257164  0.020565068 0.0071786127 
  303000    293.74266    -46135.65    23887.872  0.034430532 -0.021007988  0.002081911 -0.029955592 
  304000     299.7911   -45569.731    23887.872  0.034951131 -0.0068631523 0.0090225264 -0.0050599938 
  305000    297.84837   -46198.248    23887.872  0.038008233  0.021651617 -0.0072737717 -0.018090834 
  306000    299.42312   -46610.382    23887.872  0.039197091  0.012692051   0.00184584 -0.0050341707 
  307000    296.92444   -45600.607    23887.872  0.043524753  0.011032393  0.011222771 -0.0043700844 
  308000    294.46921   -46302.717    23887.872  0.042393922 0.0065042026 -0.011106948 -0.008957377 
  309000    297.16034   -47442.809    23887.872  0.042233185  0.019982134 -0.016647119 -0.0067134882 
  310000    299.47856   -44662.387    23887.872   0.04399295  0.013567939  0.012584727 0.0029342896 
  311000    300.21615   -46432.653    23887.872  0.039269858 0.0087051223 -0.00060565746 -0.0054028072 
  312000    302.72032   -45773.634    23887.872  0.037615049  0.012351858 0.0073681852  0.021310827 
  313000    299.06253   -46522.927    23887.872  0.035165219 -0.021325678  0.015450597 -0.0017751352 
  314000     298.3231   -46885.375    23887.872  0.037289744 -0.021936683 -0.0062510271  0.016721836 
  315000    298.65683   -46048.775    23887.872  0.033085799 -0.017724519 0.00012607002 -0.0028119948 
  316000    297.86277    -46008.13    23887.872  0.031637046 -0.0012538383 -0.014772194 -0.0023411737 
  317000     292.5095   -47067.057    23887.872  0.033331564 -0.0096131099 -0.011113224 -0.0052029016 
  318000     299.0379   -45098.763    23887.872  0.038840758 -0.0014048046  0.011916379 0.0082531768 
  319000    294.23079   -47055.111    23887.872  0.035253067  0.013533055 -0.016601201 -0.0069014438 
  320000     300.5065   -43911.065    23887.872  0.041614842   0.02222162 0.0040584248 -0.031685623 
  321000    295.04149   -47792.146    23887.872  0.043702837 -0.0011357124 -0.0013201519  -0.03551073 
  322000    300.34892   -46730.665    23887.872  0.037751467 -0.0016672721 -0.0005796436 -0.0036840454 
  323000    296.65709   -44473.632    23887.872  0.043292462 -0.0021261717 -0.0028173038 -0.0058101713 
  324000    295.92868   -47251.708    23887.872  0.036365938    0.0163776 -0.021785613 0.0048302243 
  325000    294.57548   -46736.234    23887.872  0.038606532   0.01157586  0.010577927 -0.0028987752 
  326000    293.09714   -46469.977    23887.872  0.031743227 0.0092768617 -0.008389259 -0.010293178 
  327000    293.48564   -46358.258    23887.872  0.027963572 -0.020391167  0.014516817    0.0100558 
  328000    299.22775   -45836.754    23887.872  0.037627504 0.0072584857 -0.0099206275  0.021740995 
  329000    293.61634   -44594.618    23887.872   0.03366519 0.0096175736 0.0049290398 -0.0075432735 
  330000    297.14164   -47914.569    23887.872  0.033530232   0.01598302 -0.010723364 -0.0086608951 
  331000    299.28987   -47353.848    23887.872  0.033788323 0.0042688332 -0.0082724229 -0.0043684722 
  332000    293.03579   -44517.431    23887.872  0.036399372  0.019040773 -0.026830244 -0.0073746042 
  333000    300.83787    -46827.23    23887.872  0.040173801 0.0025359417 0.0066456166 0.0086740353 
  334000    292.15387     -46344.8    23887.872  0.040811658 -0.020658674  0.006128375 0.0096613018 
  335000    298.84863   -45549.031    23887.872  0.047394128 -0.012682498 -0.013847456  0.013901445 
  336000    298.59034   -46624.016    23887.872    0.0466271  0.011298829 0.0011076997 -0.011467961 
  337000    305.58085   -45401.259    23887.872  0.036100754 0.0096833725 -0.0016488518  0.031674443 
  338000    296.39605     -46643.8    23887.872  0.040881514  0.018800562 -0.0053014972   0.01566554 
  339000    292.97896   -45944.756    23887.872  0.036843471 -0.0026848616  0.014754831 -0.0052246814 
  340000    300.18181   -46292.149    23887.872  0.037135342 -0.0059342805 -0.0038270979 -0.0012111205 
  341000    303.55107   -45848.141    23887.872  0.038258568  0.022376039  0.012213439  0.007555054 
  342000    300.13789   -46684.122    23887.872  0.038119545  0.015080628 -0.013832134 0.00051668207 
  343000    293.31335   -46106.522    23887.872  0.044543696 0.0076821139 -0.019786848  0.008282857 
  344000    292.88984     -46659.2    23887.872  0.034396414  0.018752029 -0.015122504 0.0031498775 
  345000    292.73811   -45668.051    23887.872  0.036071187 -0.011583952 -0.0089047635 -0.027919444 
  346000    293.67349   -45088.965    23887.872  0.041146768 0.0083084572 -0.015800424 -0.00037883314 
  347000    300.44337   -47471.747    23887.872  0.040874961 -0.012515991 -0.011151323 0.00049126697 
  348000    290.03964   -46619.256    23887.872  0.043116207  0.013646824  -0.02143675 -0.011260786 
  349000    295.30449   -44984.617    23887.872  0.042705858 0.0025719103 -0.0053446683 -0.00044656172 
  350000     294.6229   