
#--------------------------------------------------------------------------
#nve rescale
#--------------------------------------------------------------------------
	velocity 		all create ${T_run} ${seed} rot yes dist gaussian
	velocity 		all create 300 ${seed} rot yes dist gaussian
	velocity 		all create 300 22222 rot yes dist gaussian

	fix 			1 all nve
	fix 			2 all temp/rescale 1 ${T_run} ${T_run} 0.01 1.0
	fix 			2 all temp/rescale 1 300 ${T_run} 0.01 1.0
	fix 			2 all temp/rescale 1 300 300 0.01 1.0
	timestep		${dt}
	timestep		0.001
	thermo_style  		custom step temp press etotal vol
	thermo			1000
	run             	100000	
Memory usage per processor = 3.08818 Mbytes
Step Temp Press TotEng Volume 
       0          300    178738.73   -12581.384    23887.872 
    1000          300    13229.608    -12770.86    23887.872 
    2000          300    29015.972   -12785.095    23887.872 
    3000          300    6017.2387   -12780.585    23887.872 
    4000          300     -692.821   -12779.738    23887.872 
    5000          300    1154.7313   -12783.631    23887.872 
    6000          300    11977.637   -12781.278    23887.872 
    7000          300    13880.036    -12780.76    23887.872 
    8000          300    6579.3643   -12782.068    23887.872 
    9000          300    411.21194   -12782.074    23887.872 
   10000          300    4208.2974   -12782.298    23887.872 
   11000          300     10542.95   -12782.821    23887.872 
   12000          300    8853.0489   -12780.671    23887.872 
   13000          300    1535.2282   -12781.527    23887.872 
   14000          300    7323.1749   -12780.707    23887.872 
   15000          300    6530.3531   -12781.096    23887.872 
   16000          300     6233.661   -12781.053    23887.872 
   17000          300    7882.3051    -12783.18    23887.872 
   18000          300     6119.448   -12784.929    23887.872 
   19000          300    4771.4362   -12781.847    23887.872 
   20000          300    4521.8584   -12782.503    23887.872 
   21000          300    5657.6795   -12782.358    23887.872 
   22000          300     6536.461   -12784.184    23887.872 
   23000          300    4152.9757   -12781.875    23887.872 
   24000          300    3971.1852   -12782.322    23887.872 
   25000          300    7716.9041   -12781.222    23887.872 
   26000          300    6711.1769   -12782.759    23887.872 
   27000          300    3588.3748   -12781.227    23887.872 
   28000          300    4710.1738   -12781.525    23887.872 
   29000          300     6418.603   -12781.433    23887.872 
   30000          300    6388.9665   -12780.897    23887.872 
   31000          300    6440.8866   -12781.321    23887.872 
   32000          300    5536.7288   -12781.457    23887.872 
   33000          300    5605.0197   -12785.901    23887.872 
   34000          300    8734.9329   -12781.803    23887.872 
   35000          300    4128.2841   -12782.414    23887.872 
   36000          300    6535.6897   -12782.378    23887.872 
   37000          300    7693.6068   -12781.315    23887.872 
   38000          300    5214.3465   -12783.185    23887.872 
   39000          300    5375.3744   -12782.813    23887.872 
   40000          300    5944.8562   -12782.122    23887.872 
   41000          300    6141.9437   -12782.304    23887.872 
   42000          300    6568.5054   -12783.275    23887.872 
   43000          300    5947.1531    -12781.92    23887.872 
   44000          300    5756.5902   -12782.553    23887.872 
   45000          300    5208.0196   -12782.486    23887.872 
   46000          300    7370.7332    -12781.01    23887.872 
   47000          300    5749.3026    -12783.05    23887.872 
   48000          300    7515.8929   -12780.521    23887.872 
   49000          300     5176.375   -12781.984    23887.872 
   50000          300    5809.3044   -12781.529    23887.872 
   51000          300    4557.4256    -12784.63    23887.872 
   52000          300    5489.6124   -12782.365    23887.872 
   53000          300    7102.4383   -12782.274    23887.872 
   54000          300     4150.132   -12785.177    23887.872 
   55000          300    4163.2017   -12781.648    23887.872 
   56000          300    6592.2295   -12784.999    23887.872 
   57000          300    5550.4743   -12782.346    23887.872 
   58000          300     5748.774   -12781.216    23887.872 
   59000          300    6714.5126   -12782.274    23887.872 
   60000          300     5079.409   -12783.843    23887.872 
   61000          300    4487.6266   -12783.822    23887.872 
   62000          300    4238.0781   -12784.248    23887.872 
   63000          300    7397.4674   -12785.157    23887.872 
   64000          300    8609.6302    -12782.08    23887.872 
   65000          300    6113.6421   -12779.964    23887.872 
   66000          300    3325.1631   -12784.226    23887.872 
   67000          300    5407.1941   -12782.359    23887.872 
   68000          300    6851.0394   -12781.479    23887.872 
   69000          300    4895.3728   -12784.155    23887.872 
   70000          300    4638.9839   -12781.565    23887.872 
   71000          300    5759.7883   -12785.458    23887.872 
   72000          300    6075.9345   -12784.992    23887.872 
   73000          300    7360.2109   -12783.919    23887.872 
   74000          300    6372.8655   -12781.496    23887.872 
   75000          300     4227.894   -12784.781    23887.872 
   76000          300    6149.7518   -12783.966    23887.872 
   77000          300    6830.1985   -12781.634    23887.872 
   78000          300    7950.3703   -12785.039    23887.872 
   79000          300    7594.8199   -12782.231    23887.872 
   80000          300    3496.1837   -12781.155    23887.872 
   81000          300    3559.1086   -12782.482    23887.872 
   82000          300    8203.6138   -12784.586    23887.872 
   83000          300    7101.7823   -12782.781    23887.872 
   84000          300    3333.4599   -12781.456    23887.872 
   85000          300    2467.6058   -12783.088    23887.872 
   86000          300    9301.3375    -12784.97    23887.872 
   87000          300    4653.2391   -12784.897    23887.872 
   88000          300    5523.1199   -12783.449    23887.872 
   89000          300    7500.6632   -12783.306    23887.872 
   90000          300    6345.4748   -12784.283    23887.872 
   91000          300     5076.413   -12783.649    23887.872 
   92000          300    5977.5187   -12783.302    23887.872 
   93000          300    7490.8982   -12783.912    23887.872 
   94000          300    5843.3612   -12781.204    23887.872 
   95000          300    5769.0633   -12782.122    23887.872 
   96000          300    6102.0142   -12785.293    23887.872 
   97000          300    5762.8521   -12782.713    23887.872 
   98000          300    7803.3944   -12781.369    23887.872 
   99000          300    6522.4079   -12783.517    23887.872 
  100000          300    5336.2881   -12782.504    23887.872 
Loop time of 2119.82 on 16 procs for 100000 steps with 1920 atoms

Pair  time (%) = 1874.58 (88.4309)
Bond  time (%) = 0.0475545 (0.00224333)
Neigh time (%) = 4.37637 (0.20645)
Comm  time (%) = 232.903 (10.9869)
Outpt time (%) = 0.00806133 (0.000380284)
Other time (%) = 7.90826 (0.373063)

Nlocal:    120 ave 125 max 115 min
Histogram: 1 1 1 1 4 1 2 1 3 1
Nghost:    4982.19 ave 5032 max 4941 min
Histogram: 3 2 0 3 1 1 1 3 0 2
Neighs:    52901.5 ave 55362 max 50664 min
Histogram: 2 1 1 4 2 1 0 2 2 1
FullNghs: 105803 ave 110990 max 100948 min
Histogram: 1 2 1 1 5 0 2 2 1 1

Total # of neighbors = 1692848
Ave neighs/atom = 881.692
Ave special neighs/atom = 0
Neighbor list builds = 515
Dangerous builds = 0
#	run             	1000
	unfix 			1
	unfix 			2
#--------------------------------------------------------------------------
#nve
#--------------------------------------------------------------------------
	fix 			1 all nve
	timestep		${dt}
	timestep		0.001
	thermo_style  		custom step temp press etotal vol
	thermo			1000
	run             	100000	
Memory usage per processor = 3.54976 Mbytes
Step Temp Press TotEng Volume 
  100000          300    5336.2881   -12782.504    23887.872 
  101000    304.66258    10910.174   -12782.515    23887.872 
  102000    298.54709    5321.6968   -12782.478    23887.872 
  103000    296.62271    5214.2215   -12782.466    23887.872 
  104000    308.84772    8726.8194   -12782.524    23887.872 
  105000    309.25864    8739.7022   -12782.512    23887.872 
  106000    301.99321    3239.7723   -12782.492    23887.872 
  107000    302.84579    5417.3194   -12782.475    23887.872 
  108000    315.90294    8411.0427   -12782.533    23887.872 
  109000    306.18471    5652.3979   -12782.492    23887.872 
  110000    303.25471    5522.4424   -12782.507    23887.872 
  111000    301.80442    6492.3402   -12782.484    23887.872 
  112000    306.96998     7344.098   -12782.508    23887.872 
  113000    304.01325    7076.2153   -12782.506    23887.872 
  114000    299.88492    7808.7033   -12782.522    23887.872 
  115000    293.68519    5726.0737   -12782.465    23887.872 
  116000    294.77447    6711.9242   -12782.456    23887.872 
  117000     308.2628    6066.4524   -12782.524    23887.872 
  118000    294.72234    5373.2731   -12782.471    23887.872 
  119000    306.56101     4296.126   -12782.496    23887.872 
  120000    304.59825    7431.4846   -12782.497    23887.872 
  121000    310.17789    7735.4001   -12782.515    23887.872 
  122000    301.52669    5213.8667   -12782.501    23887.872 
  123000    306.87813    5246.2646   -12782.509    23887.872 
  124000    300.51735    4621.2429   -12782.495    23887.872 
  125000    296.26921    7314.4636   -12782.482    23887.872 
  126000    307.43649    6246.9114   -12782.496    23887.872 
  127000    300.02582    6181.6077   -12782.484    23887.872 
  128000    291.08549     8676.872   -12782.466    23887.872 
  129000    303.03033    6769.5125   -12782.498    23887.872 
  130000    300.89482    4772.5196   -12782.499    23887.872 
  131000    302.50288    7204.6176   -12782.499    23887.872 
  132000    300.24339    7101.1963   -12782.521    23887.872 
  133000    304.24093    7236.7498   -12782.483    23887.872 
  134000    298.64109    5100.8152   -12782.496    23887.872 
  135000    298.22117    9343.2625   -12782.489    23887.872 
  136000    301.12449    5655.3069   -12782.504    23887.872 
  137000     300.0611    6235.8123    -12782.49    23887.872 
  138000    301.08545    7044.0454   -12782.487    23887.872 
  139000    299.19346    4655.8269   -12782.497    23887.872 
  140000     299.0686    5886.9463   -12782.495    23887.872 
  141000    295.75109    6948.2118   -12782.476    23887.872 
  142000    302.56877    6854.4284   -12782.488    23887.872 
  143000    300.33637    4254.4722   -12782.505    23887.872 
  144000    304.88936    6496.9544   -12782.513    23887.872 
  145000    301.81352    5473.3517   -12782.505    23887.872 
  146000     294.0169    5753.0955   -12782.474    23887.872 
  147000    302.38378    6836.6383   -12782.519    23887.872 
  148000    293.32531     5878.986   -12782.501    23887.872 
  149000    304.00395    5520.6074   -12782.516    23887.872 
  150000    305.15299    3244.3608   -12782.516    23887.872 
  151000    302.75639    8043.3812   -12782.528    23887.872 
  152000    298.86822    7176.0781   -12782.489    23887.872 
  153000    297.45985    3906.3479   -12782.485    23887.872 
  154000       299.12    6843.2089   -12782.512    23887.872 
  155000    301.60668    7672.5069   -12782.508    23887.872 
  156000    296.07406    5875.7703   -12782.501    23887.872 
  157000    296.07694    5712.9637   -12782.494    23887.872 
  158000    297.13309    8610.6419   -12782.506    23887.872 
  159000    299.01377    6050.0324   -12782.499    23887.872 
  160000    297.28591    5731.4368   -12782.484    23887.872 
  161000    299.83904    6428.0749   -12782.483    23887.872 
  162000    299.68995    8447.1436   -12782.508    23887.872 
  163000    301.83975     6681.852   -12782.503    23887.872 
  164000    296.78038    5252.8533   -12782.494    23887.872 
  165000    297.61867    5705.0714   -12782.494    23887.872 
  166000    304.66462    9587.6321   -12782.522    23887.872 
  167000    303.62353    6408.3029   -12782.512    23887.872 
  168000    304.49513    5575.7344   -12782.512    23887.872 
  169000    299.00238    4814.2045   -12782.494    23887.872 
  170000    292.98661    8626.4437   -12782.488    23887.872 
  171000    299.33276    6893.3701   -12782.515    23887.872 
  172000    308.03769    5421.8456   -12782.521    23887.872 
  173000      303.199    6061.4698   -12782.507    23887.872 
  174000    304.84859    5203.7012   -12782.525    23887.872 
  175000    307.25893    6104.4136   -12782.519    23887.872 
  176000    305.25654    6209.1568   -12782.543    23887.872 
  177000    297.79495    8401.6837   -12782.498    23887.872 
  178000    301.24253    4194.9059   -12782.511    23887.872 
  179000    296.86986    6309.3597   -12782.508    23887.872 
  180000    303.08888    8585.1412   -12782.537    23887.872 
  181000    301.97602    5975.5554   -12782.508    23887.872 
  182000    301.90927    4786.7715   -12782.482    23887.872 
  183000    306.91119    5900.7113   -12782.495    23887.872 
  184000    297.67603    6847.9111   -12782.488    23887.872 
  185000    300.27843     6417.866   -12782.517    23887.872 
  186000    300.86531    6411.1442   -12782.497    23887.872 
  187000    302.89773    6860.6374   -12782.519    23887.872 
  188000    301.48074     5931.163   -12782.523    23887.872 
  189000    296.33807     6345.765   -12782.497    23887.872 
  190000    302.58919    7810.1551    -12782.52    23887.872 
  191000    307.13195    7190.1845   -12782.531    23887.872 
  192000    308.14651    4783.1004    -12782.52    23887.872 
  193000    306.40301    8371.7006   -12782.513    23887.872 
  194000    305.34113    5282.5824   -12782.538    23887.872 
  195000    293.52344    4873.9084     -12782.5    23887.872 
  196000    300.05665    6924.5902    -12782.51    23887.872 
  197000    307.86122    5825.1486   -12782.531    23887.872 
  198000    301.80418    5724.8765   -12782.534    23887.872 
  199000    304.35907    6305.1192   -12782.535    23887.872 
  200000    305.61541    6056.4538   -12782.511    23887.872 
Loop time of 2120.61 on 16 procs for 100000 steps with 1920 atoms

Pair  time (%) = 1878.66 (88.5909)
Bond  time (%) = 0.0476348 (0.00224629)
Neigh time (%) = 4.87706 (0.229984)
Comm  time (%) = 230.702 (10.8791)
Outpt time (%) = 0.00972395 (0.000458546)
Other time (%) = 6.30613 (0.297374)

Nlocal:    120 ave 126 max 113 min
Histogram: 1 0 1 3 2 1 5 1 0 2
Nghost:    4990 ave 5011 max 4962 min
Histogram: 1 0 0 3 4 1 2 2 1 2
Neighs:    52860.5 ave 55840 max 49528 min
Histogram: 1 0 3 1 2 2 3 2 0 2
FullNghs: 105721 ave 111549 max 99186 min
Histogram: 1 0 3 1 2 2 3 2 0 2

Total # of neighbors = 1691536
Ave neighs/atom = 881.008
Ave special neighs/atom = 0
Neighbor list builds = 573
Dangerous builds = 0
#	run             	10000
	unfix 			1
#--------------------------------------------------------------------------
#kappa
#--------------------------------------------------------------------------
log 	log_kappa_${iseed}.lammps
log 	log_kappa_2.lammps
