
#--------------------------------------------------------------------------
#nve rescale
#--------------------------------------------------------------------------
	velocity 		all create ${T_run} ${seed} rot yes dist gaussian
	velocity 		all create 300 ${seed} rot yes dist gaussian
	velocity 		all create 300 33333 rot yes dist gaussian

	fix 			1 all nve
	fix 			2 all temp/rescale 1 ${T_run} ${T_run} 0.01 1.0
	fix 			2 all temp/rescale 1 300 ${T_run} 0.01 1.0
	fix 			2 all temp/rescale 1 300 300 0.01 1.0
	timestep		${dt}
	timestep		0.001
	thermo_style  		custom step temp press etotal vol
	thermo			1000
	run             	100000	
Memory usage per processor = 3.08818 Mbytes
Step Temp Press TotEng Volume 
       0          300    178738.73   -12581.384    23887.872 
    1000          300    11499.567   -12771.843    23887.872 
    2000          300     26394.18   -12787.745    23887.872 
    3000          300    7940.5338   -12782.461    23887.872 
    4000          300    553.63978   -12780.876    23887.872 
    5000          300    300.58959   -12781.762    23887.872 
    6000          300    12718.302   -12781.607    23887.872 
    7000          300    16153.266   -12784.636    23887.872 
    8000          300    2425.2038   -12780.085    23887.872 
    9000          300   -1871.8498   -12783.639    23887.872 
   10000          300    6248.8689   -12780.838    23887.872 
   11000          300    8215.7214   -12781.754    23887.872 
   12000          300    10691.194   -12780.467    23887.872 
   13000          300    3245.8424   -12781.434    23887.872 
   14000          300    1484.5925   -12782.133    23887.872 
   15000          300    5086.8357   -12783.127    23887.872 
   16000          300     8606.204   -12781.118    23887.872 
   17000          300    4658.5185   -12781.416    23887.872 
   18000          300    2385.2147   -12783.338    23887.872 
   19000          300    5206.3651    -12780.42    23887.872 
   20000          300    8918.3586   -12782.992    23887.872 
   21000          300    6038.9139   -12782.077    23887.872 
   22000          300    3043.3657   -12781.521    23887.872 
   23000          300    5367.9515   -12780.744    23887.872 
   24000          300    6303.6399   -12783.545    23887.872 
   25000          300    5878.8063   -12782.309    23887.872 
   26000          300    5738.8378   -12784.094    23887.872 
   27000          300     6594.222   -12781.088    23887.872 
   28000          300    3742.5558   -12782.747    23887.872 
   29000          300    6071.2008   -12783.079    23887.872 
   30000          300    7260.3096   -12782.556    23887.872 
   31000          300     4436.699   -12781.363    23887.872 
   32000          300    5069.9293   -12783.047    23887.872 
   33000          300    5580.8426   -12781.455    23887.872 
   34000          300    5314.6376   -12783.086    23887.872 
   35000          300    5874.1307   -12783.848    23887.872 
   36000          300    4429.6437   -12782.438    23887.872 
   37000          300    5941.1361   -12785.356    23887.872 
   38000          300    5718.6437   -12782.775    23887.872 
   39000          300    3898.3555   -12781.767    23887.872 
   40000          300    4420.9236   -12782.431    23887.872 
   41000          300    6601.2262   -12784.433    23887.872 
   42000          300    6852.8394   -12782.775    23887.872 
   43000          300    3485.9213   -12782.776    23887.872 
   44000          300    4414.3391   -12781.362    23887.872 
   45000          300    9620.4937   -12782.434    23887.872 
   46000          300    7012.2595   -12782.517    23887.872 
   47000          300     4451.978   -12782.248    23887.872 
   48000          300    5659.9739   -12783.725    23887.872 
   49000          300    7708.5502   -12783.902    23887.872 
   50000          300    8426.2366   -12782.777    23887.872 
   51000          300    5214.5366     -12781.9    23887.872 
   52000          300    902.26497   -12782.303    23887.872 
   53000          300    4895.9959   -12782.302    23887.872 
   54000          300    5708.1583   -12785.153    23887.872 
   55000          300    9507.9398   -12782.143    23887.872 
   56000          300    2881.5359   -12783.519    23887.872 
   57000          300    4905.7454   -12782.024    23887.872 
   58000          300    6927.4171   -12782.418    23887.872 
   59000          300    5864.1453   -12783.177    23887.872 
   60000          300    7998.0526   -12781.134    23887.872 
   61000          300    5032.4006   -12782.794    23887.872 
   62000          300    3447.7376   -12781.334    23887.872 
   63000          300    5980.1204   -12781.835    23887.872 
   64000          300    3639.5443   -12783.606    23887.872 
   65000          300    7110.5865   -12782.169    23887.872 
   66000          300    8325.5894   -12782.818    23887.872 
   67000          300    6825.2689   -12783.235    23887.872 
   68000          300    4569.7095   -12784.246    23887.872 
   69000          300    4780.0068   -12784.014    23887.872 
   70000          300    7344.0641   -12782.992    23887.872 
   71000          300    6767.4971   -12781.496    23887.872 
   72000          300     3363.827   -12784.152    23887.872 
   73000          300     6748.043   -12783.117    23887.872 
   74000          300    8634.3249   -12781.883    23887.872 
   75000          300    5704.8806   -12783.061    23887.872 
   76000          300    6655.2682   -12784.699    23887.872 
   77000          300    5137.8511   -12782.444    23887.872 
   78000          300    5702.1721     -12785.2    23887.872 
   79000          300    6659.1116   -12782.605    23887.872 
   80000          300     6382.229   -12784.238    23887.872 
   81000          300    9702.8969   -12783.363    23887.872 
   82000          300    4437.7675   -12784.688    23887.872 
   83000          300    4366.1213   -12784.589    23887.872 
   84000          300    7741.2601   -12784.162    23887.872 
   85000          300     7045.908   -12783.951    23887.872 
   86000          300     4747.156   -12784.007    23887.872 
   87000          300    5976.4038   -12783.807    23887.872 
   88000          300    6152.8915   -12783.549    23887.872 
   89000          300    7632.0337   -12786.913    23887.872 
   90000          300     6734.882   -12785.192    23887.872 
   91000          300     5517.246   -12784.316    23887.872 
   92000          300    6282.9897   -12781.662    23887.872 
   93000          300     7800.907   -12784.386    23887.872 
   94000          300    5711.1665   -12780.479    23887.872 
   95000          300    3789.4451   -12781.893    23887.872 
   96000          300    6469.0372   -12781.969    23887.872 
   97000          300    9043.6155   -12783.168    23887.872 
   98000          300    5959.2084   -12783.594    23887.872 
   99000          300    4957.0223   -12785.089    23887.872 
  100000          300    5914.1062   -12783.029    23887.872 
Loop time of 2058.34 on 16 procs for 100000 steps with 1920 atoms

Pair  time (%) = 1862.37 (90.4792)
Bond  time (%) = 0.0458512 (0.00222758)
Neigh time (%) = 4.32153 (0.209952)
Comm  time (%) = 184.229 (8.95039)
Outpt time (%) = 0.00743192 (0.000361064)
Other time (%) = 7.36644 (0.357883)

Nlocal:    120 ave 128 max 117 min
Histogram: 7 1 1 3 1 1 1 0 0 1
Nghost:    4957.81 ave 4990 max 4918 min
Histogram: 1 1 3 1 1 0 2 3 3 1
Neighs:    52879.5 ave 56580 max 51126 min
Histogram: 4 3 1 2 2 2 1 0 0 1
FullNghs: 105759 ave 112921 max 102395 min
Histogram: 5 2 1 3 1 2 1 0 0 1

Total # of neighbors = 1692144
Ave neighs/atom = 881.325
Ave special neighs/atom = 0
Neighbor list builds = 510
Dangerous builds = 0
#	run             	1000
	unfix 			1
	unfix 			2
#--------------------------------------------------------------------------
#nve
#--------------------------------------------------------------------------
	fix 			1 all nve
	timestep		${dt}
	timestep		0.001
	thermo_style  		custom step temp press etotal vol
	thermo			1000
	run             	100000	
Memory usage per processor = 3.54976 Mbytes
Step Temp Press TotEng Volume 
  100000          300    5914.1062   -12783.029    23887.872 
  101000      304.248    8044.2108   -12783.051    23887.872 
  102000      297.648    6957.0561       -12783    23887.872 
  103000    304.16756    8105.1682   -12783.037    23887.872 
  104000    296.88754    5443.5687   -12783.025    23887.872 
  105000    299.69507    5246.4071    -12783.01    23887.872 
  106000    298.31579    7293.9296   -12783.011    23887.872 
  107000    301.13366    8372.6459   -12783.029    23887.872 
  108000    301.36057    4438.2794    -12783.01    23887.872 
  109000    299.77203    5319.9182    -12783.02    23887.872 
  110000     304.4325     9288.556   -12783.058    23887.872 
  111000    300.31642    6700.5103   -12783.047    23887.872 
  112000    298.60261    6590.1631   -12783.023    23887.872 
  113000    302.64877    4427.5906   -12783.028    23887.872 
  114000    299.99528    7574.1478    -12783.04    23887.872 
  115000    313.73997    6825.4023   -12783.049    23887.872 
  116000    301.00377    3759.2528   -12783.021    23887.872 
  117000    297.12373    5724.5358   -12783.011    23887.872 
  118000     302.1292    7019.3125   -12783.026    23887.872 
  119000    300.58297    5531.2621   -12783.043    23887.872 
  120000    307.84773    4547.2801    -12783.04    23887.872 
  121000    301.55146    6904.9677   -12783.024    23887.872 
  122000    295.81006    9396.6896   -12783.009    23887.872 
  123000    303.48075    5633.0468   -12783.049    23887.872 
  124000    299.50973    4629.4249   -12783.022    23887.872 
  125000    300.08229    6666.9762   -12783.041    23887.872 
  126000    300.87395    8541.1832   -12783.038    23887.872 
  127000    303.59577    5226.7576   -12783.025    23887.872 
  128000    300.39743     3788.868   -12783.035    23887.872 
  129000    299.04282    5248.9672   -12783.015    23887.872 
  130000    306.36791    9229.3494   -12783.037    23887.872 
  131000    300.75192    4972.8697    -12783.03    23887.872 
  132000    300.90972    5225.1801   -12783.035    23887.872 
  133000    304.59212    6549.2549   -12783.063    23887.872 
  134000     296.0326    8224.9693   -12783.015    23887.872 
  135000    304.00543    6091.4798   -12783.051    23887.872 
  136000    299.78679     5755.478   -12783.037    23887.872 
  137000    295.15756    7385.8574   -12783.038    23887.872 
  138000     304.6055    4981.2898   -12783.039    23887.872 
  139000    296.51712    4142.5993   -12783.025    23887.872 
  140000    298.42271    7846.1391   -12783.022    23887.872 
  141000     296.7061    8242.8435   -12783.023    23887.872 
  142000    302.82136    5755.8726   -12783.039    23887.872 
  143000    300.88105    7914.0419   -12783.026    23887.872 
  144000    292.60465    5819.9457   -12783.021    23887.872 
  145000    296.55552    5926.9976   -12783.032    23887.872 
  146000    295.81857    8178.3884   -12783.037    23887.872 
  147000    298.73983    9132.8339   -12783.052    23887.872 
  148000    301.22314    5015.0815   -12783.038    23887.872 
  149000    307.00264    4226.1016   -12783.061    23887.872 
  150000     305.8116    6354.1809   -12783.059    23887.872 
  151000    296.77768    7174.7651    -12783.02    23887.872 
  152000    306.00744    6409.4721   -12783.059    23887.872 
  153000    308.03729    6202.0641   -12783.055    23887.872 
  154000    296.58223    6575.0659   -12783.038    23887.872 
  155000    289.82222    7485.2834   -12783.009    23887.872 
  156000    298.58342     6892.707   -12783.029    23887.872 
  157000     305.9327    6884.1087   -12783.061    23887.872 
  158000    302.98329    6135.2381   -12783.048    23887.872 
  159000    300.12613     6150.285   -12783.039    23887.872 
  160000    296.86547      8419.22   -12783.026    23887.872 
  161000    296.07838    4966.1133    -12783.04    23887.872 
  162000    303.01714    4803.3355   -12783.054    23887.872 
  163000    299.43345    7364.5537   -12783.031    23887.872 
  164000    302.17497    9021.6801   -12783.031    23887.872 
  165000    306.23336    6992.3096   -12783.069    23887.872 
  166000    301.24899    5545.8522   -12783.041    23887.872 
  167000    299.05951    4487.8529   -12783.022    23887.872 
  168000    300.71772    6045.9102   -12783.049    23887.872 
  169000    303.96307    5607.3423   -12783.065    23887.872 
  170000    298.68837    4795.5808   -12783.047    23887.872 
  171000    307.11119     9684.834   -12783.053    23887.872 
  172000    303.28014    5648.1571   -12783.037    23887.872 
  173000      299.745     4213.504   -12783.031    23887.872 
  174000    300.25787    5828.7485    -12783.04    23887.872 
  175000    299.06795    10232.316   -12783.034    23887.872 
  176000    300.96649    8624.5183   -12783.027    23887.872 
  177000    298.00392    2044.2611   -12783.024    23887.872 
  178000    297.54114    3232.2054   -12783.014    23887.872 
  179000    295.51514    10420.043   -12783.007    23887.872 
  180000    298.73651    7695.7437   -12783.048    23887.872 
  181000    293.67786    3910.9543   -12783.041    23887.872 
  182000    298.44563    5980.8619   -12783.037    23887.872 
  183000     299.6835    8396.9193   -12783.047    23887.872 
  184000    295.58322      4323.24   -12783.014    23887.872 
  185000    300.51197    6008.5891    -12783.03    23887.872 
  186000    294.79708    9465.7073   -12783.037    23887.872 
  187000    303.42621     6096.274   -12783.054    23887.872 
  188000    296.78193    4397.5416   -12783.042    23887.872 
  189000    307.60835    5893.6532   -12783.077    23887.872 
  190000    297.73613    8417.5941   -12783.043    23887.872 
  191000    295.80304    6122.8762    -12783.03    23887.872 
  192000    295.82188    5363.9352   -12783.026    23887.872 
  193000    292.44223    5661.6787   -12783.021    23887.872 
  194000    291.12142    6407.5369   -12783.001    23887.872 
  195000    297.00506    6432.1386   -12783.026    23887.872 
  196000    301.87691    6206.8571   -12783.051    23887.872 
  197000     309.1729    5112.7405    -12783.08    23887.872 
  198000    298.62728    6648.9256   -12783.045    23887.872 
  199000    297.19836    7233.0124   -12783.035    23887.872 
  200000    298.07903    7620.7687   -12783.037    23887.872 
Loop time of 2060.21 on 16 procs for 100000 steps with 1920 atoms

Pair  time (%) = 1865.05 (90.5272)
Bond  time (%) = 0.0455004 (0.00220854)
Neigh time (%) = 4.65419 (0.225909)
Comm  time (%) = 184.401 (8.9506)
Outpt time (%) = 0.00875601 (0.000425007)
Other time (%) = 6.0493 (0.293626)

Nlocal:    120 ave 127 max 112 min
Histogram: 1 1 0 2 4 2 0 2 3 1
Nghost:    4979.5 ave 5044 max 4934 min
Histogram: 3 1 3 1 0 3 2 2 0 1
Neighs:    52886.5 ave 55758 max 48812 min
Histogram: 1 0 1 2 4 0 2 1 2 3
FullNghs: 105773 ave 111978 max 97892 min
Histogram: 1 1 0 4 2 2 0 2 1 3

Total # of neighbors = 1692368
Ave neighs/atom = 881.442
Ave special neighs/atom = 0
Neighbor list builds = 549
Dangerous builds = 0
#	run             	10000
	unfix 			1
#--------------------------------------------------------------------------
#kappa
#--------------------------------------------------------------------------
log 	log_kappa_${iseed}.lammps
log 	log_kappa_3.lammps
