
#--------------------------------------------------------------------------
#nve rescale
#--------------------------------------------------------------------------
	velocity 		all create ${T_run} ${seed} rot yes dist gaussian
	velocity 		all create 300 ${seed} rot yes dist gaussian
	velocity 		all create 300 11111 rot yes dist gaussian

	fix 			1 all nve
	fix 			2 all temp/rescale 1 ${T_run} ${T_run} 0.01 1.0
	fix 			2 all temp/rescale 1 300 ${T_run} 0.01 1.0
	fix 			2 all temp/rescale 1 300 300 0.01 1.0
	timestep		${dt}
	timestep		0.001
	thermo_style  		custom step temp press etotal vol
	thermo			1000
	run             	100000	
Memory usage per processor = 3.08818 Mbytes
Step Temp Press TotEng Volume 
       0          300    178738.73   -12581.384    23887.872 
    1000          300    7386.2923   -12772.006    23887.872 
    2000          300     26915.68   -12786.962    23887.872 
    3000          300    9572.6239   -12778.768    23887.872 
    4000          300   -1573.9228   -12781.596    23887.872 
    5000          300   -2476.6202   -12783.033    23887.872 
    6000          300    10756.309   -12781.064    23887.872 
    7000          300     17029.85   -12783.155    23887.872 
    8000          300    2771.0298    -12783.31    23887.872 
    9000          300   -2361.1009   -12780.978    23887.872 
   10000          300     7596.738   -12781.694    23887.872 
   11000          300     10240.52    -12781.68    23887.872 
   12000          300    5832.0484   -12781.413    23887.872 
   13000          300   -133.35913   -12782.274    23887.872 
   14000          300    6058.5065       -12781    23887.872 
   15000          300    9266.4077   -12780.955    23887.872 
   16000          300     5717.251   -12782.107    23887.872 
   17000          300     1807.707   -12780.916    23887.872 
   18000          300    4503.9235   -12781.223    23887.872 
   19000          300    7896.6237   -12782.237    23887.872 
   20000          300    6886.7283   -12783.175    23887.872 
   21000          300    6034.5997   -12782.143    23887.872 
   22000          300    5251.6815   -12782.765    23887.872 
   23000          300    6468.5207   -12781.701    23887.872 
   24000          300    3220.7101   -12782.228    23887.872 
   25000          300    5018.1818   -12782.473    23887.872 
   26000          300    6621.8996   -12781.124    23887.872 
   27000          300      6196.06   -12782.483    23887.872 
   28000          300    3986.2212   -12782.952    23887.872 
   29000          300    5702.3471   -12783.083    23887.872 
   30000          300     6361.705   -12782.856    23887.872 
   31000          300     6131.332   -12782.164    23887.872 
   32000          300    4564.0277   -12783.081    23887.872 
   33000          300    4405.1495   -12784.478    23887.872 
   34000          300    9956.7592   -12782.916    23887.872 
   35000          300    4951.8941   -12783.103    23887.872 
   36000          300    1600.9642   -12782.389    23887.872 
   37000          300    8429.9841   -12782.136    23887.872 
   38000          300    7329.1648     -12783.8    23887.872 
   39000          300    4487.1142   -12782.116    23887.872 
   40000          300    3881.0154   -12783.407    23887.872 
   41000          300    7323.5783   -12781.847    23887.872 
   42000          300    9677.6199   -12781.095    23887.872 
   43000          300    6430.0454   -12782.655    23887.872 
   44000          300    2277.6423   -12783.208    23887.872 
   45000          300    3644.3867   -12783.974    23887.872 
   46000          300    7951.1227   -12782.664    23887.872 
   47000          300    8493.9686   -12783.115    23887.872 
   48000    300.00868    5182.5023   -12782.182    23887.872 
   49000          300    4036.1054    -12784.38    23887.872 
   50000          300    4664.8774   -12782.179    23887.872 
   51000          300    8147.2178   -12780.408    23887.872 
   52000          300    7093.1351   -12781.288    23887.872 
   53000          300    1981.1386   -12783.416    23887.872 
   54000          300    5733.5769    -12782.06    23887.872 
   55000          300    7895.9421   -12782.095    23887.872 
   56000          300    5735.3196   -12784.413    23887.872 
   57000          300    4449.1064   -12784.415    23887.872 
   58000          300    6466.8875   -12783.074    23887.872 
   59000          300    8036.5584   -12781.376    23887.872 
   60000          300    6236.2194   -12783.187    23887.872 
   61000          300     5590.214   -12782.732    23887.872 
   62000          300    7582.9724   -12783.359    23887.872 
   63000          300     5586.325   -12784.971    23887.872 
   64000          300    3546.2757   -12783.286    23887.872 
   65000          300     6483.908   -12784.036    23887.872 
   66000          300    4358.3647       -12782    23887.872 
   67000          300    5228.2583    -12782.75    23887.872 
   68000          300    6144.2819   -12783.637    23887.872 
   69000          300    8666.2302   -12781.755    23887.872 
   70000          300    4961.0812   -12782.795    23887.872 
   71000          300    6190.6959   -12783.835    23887.872 
   72000          300    3348.2618   -12783.979    23887.872 
   73000          300    6289.0984   -12784.381    23887.872 
   74000          300    6761.9198   -12783.783    23887.872 
   75000          300    6843.1265   -12781.839    23887.872 
   76000          300    5927.4392   -12782.913    23887.872 
   77000          300     6404.138   -12782.559    23887.872 
   78000          300    6418.5172   -12783.295    23887.872 
   79000          300    5812.1135   -12783.164    23887.872 
   80000          300    4812.6968   -12783.278    23887.872 
   81000          300    6102.1111   -12784.622    23887.872 
   82000          300    7771.5272   -12783.523    23887.872 
   83000          300    5043.1977   -12784.007    23887.872 
   84000          300    4377.4131   -12781.719    23887.872 
   85000          300     7025.241   -12783.091    23887.872 
   86000          300    10099.394   -12786.182    23887.872 
   87000          300    3653.9996   -12782.089    23887.872 
   88000          300    3807.6793   -12782.677    23887.872 
   89000          300    9757.7257   -12782.795    23887.872 
   90000          300    6678.7504   -12784.698    23887.872 
   91000          300    5745.6093   -12782.332    23887.872 
   92000          300    7054.3828   -12783.513    23887.872 
   93000          300    7776.1248   -12782.936    23887.872 
   94000          300     4621.533   -12783.654    23887.872 
   95000          300    6958.4237   -12782.842    23887.872 
   96000          300    7544.9232   -12781.741    23887.872 
   97000          300    5789.6188   -12783.791    23887.872 
   98000          300    6244.9752    -12783.56    23887.872 
   99000          300    5129.7304   -12782.674    23887.872 
  100000          300    6756.4891   -12782.728    23887.872 
Loop time of 2192.85 on 16 procs for 100000 steps with 1920 atoms

Pair  time (%) = 1884.77 (85.9509)
Bond  time (%) = 0.0416698 (0.00190026)
Neigh time (%) = 4.26856 (0.194658)
Comm  time (%) = 296.474 (13.5201)
Outpt time (%) = 0.00823002 (0.000375312)
Other time (%) = 7.28186 (0.332073)

Nlocal:    120 ave 127 max 113 min
Histogram: 1 0 2 2 2 5 1 2 0 1
Nghost:    4974.44 ave 5013 max 4948 min
Histogram: 3 4 0 1 1 1 3 1 1 1
Neighs:    52884.1 ave 55964 max 49941 min
Histogram: 1 1 2 1 3 4 2 0 1 1
FullNghs: 105768 ave 112397 max 99494 min
Histogram: 1 0 2 2 4 3 1 2 0 1

Total # of neighbors = 1692290
Ave neighs/atom = 881.401
Ave special neighs/atom = 0
Neighbor list builds = 502
Dangerous builds = 0
#	run             	1000
	unfix 			1
	unfix 			2
#--------------------------------------------------------------------------
#nve
#--------------------------------------------------------------------------
	fix 			1 all nve
	timestep		${dt}
	timestep		0.001
	thermo_style  		custom step temp press etotal vol
	thermo			1000
	run             	100000	
Memory usage per processor = 3.54976 Mbytes
Step Temp Press TotEng Volume 
  100000          300    6756.4891   -12782.728    23887.872 
  101000    304.57516    7533.4829   -12782.757    23887.872 
  102000    302.88552     5909.059   -12782.736    23887.872 
  103000    303.46544    3718.1007   -12782.739    23887.872 
  104000    298.62995     5894.582    -12782.75    23887.872 
  105000    303.96167    7616.3266   -12782.762    23887.872 
  106000    302.84788    8078.1395   -12782.766    23887.872 
  107000    301.87239    4904.5502   -12782.728    23887.872 
  108000    296.78873    5202.5542   -12782.746    23887.872 
  109000    302.55658     5767.277   -12782.765    23887.872 
  110000    300.53889    9796.2104   -12782.767    23887.872 
  111000    297.95445    7918.1059   -12782.741    23887.872 
  112000    300.94829    4673.3571   -12782.746    23887.872 
  113000    294.21273    6034.9444    -12782.73    23887.872 
  114000    298.30316    7600.7747   -12782.733    23887.872 
  115000     304.5052    7223.6067   -12782.763    23887.872 
  116000    301.01811    7994.3617    -12782.76    23887.872 
  117000    299.08572    8265.4476   -12782.757    23887.872 
  118000    297.17111    3168.0563   -12782.717    23887.872 
  119000    295.93615    6186.6703   -12782.732    23887.872 
  120000     302.0494    9701.8869   -12782.743    23887.872 
  121000    302.24507    6173.2879   -12782.746    23887.872 
  122000    295.47363    3940.3964   -12782.728    23887.872 
  123000    297.53745    9535.3535   -12782.737    23887.872 
  124000    300.82258    6006.6906    -12782.75    23887.872 
  125000     294.5521    7109.4202   -12782.734    23887.872 
  126000     297.3677    9610.2021   -12782.747    23887.872 
  127000     304.8899    3911.4076   -12782.773    23887.872 
  128000    305.62562    4134.8121   -12782.786    23887.872 
  129000     301.7226    8581.9887   -12782.752    23887.872 
  130000    303.70527    6580.9606   -12782.747    23887.872 
  131000    306.53451    4666.4851   -12782.743    23887.872 
  132000    299.79801    6767.1777   -12782.726    23887.872 
  133000    307.04247    8171.4452   -12782.762    23887.872 
  134000    303.41627    3918.9801   -12782.779    23887.872 
  135000    302.55176    6604.2338   -12782.754    23887.872 
  136000    305.60471    10376.321    -12782.77    23887.872 
  137000    305.77982    3409.6949   -12782.788    23887.872 
  138000    299.57496    4941.8358   -12782.749    23887.872 
  139000    298.29083     7727.554   -12782.761    23887.872 
  140000    299.13217     6992.876   -12782.751    23887.872 
  141000    301.01538    6829.8377   -12782.756    23887.872 
  142000    296.51353    7062.0899   -12782.737    23887.872 
  143000    296.85396    7871.1733   -12782.748    23887.872 
  144000    296.93231    5744.3332   -12782.743    23887.872 
  145000    302.10028    5362.3176   -12782.744    23887.872 
  146000    297.53227    7698.4331   -12782.729    23887.872 
  147000    303.99125    5309.0861   -12782.777    23887.872 
  148000    304.73764    6198.0041   -12782.748    23887.872 
  149000    300.89298    8301.5373   -12782.753    23887.872 
  150000    302.82326      6826.07   -12782.754    23887.872 
  151000    299.57911    3574.8795   -12782.705    23887.872 
  152000    302.35002    7632.5175   -12782.757    23887.872 
  153000    295.01439    6765.6179   -12782.726    23887.872 
  154000    297.08775    7551.6278   -12782.729    23887.872 
  155000    305.53111    5446.0272   -12782.748    23887.872 
  156000    303.24993    7111.9062    -12782.76    23887.872 
  157000    302.34837    6613.9661   -12782.752    23887.872 
  158000    295.67035     6665.684   -12782.736    23887.872 
  159000    306.27257    5955.9139   -12782.753    23887.872 
  160000     299.9654    7735.3926    -12782.74    23887.872 
  161000    302.84739    5713.8944   -12782.764    23887.872 
  162000    302.25928    6538.4423   -12782.777    23887.872 
  163000    308.45639    5736.4874   -12782.749    23887.872 
  164000    297.70472      5740.99   -12782.729    23887.872 
  165000    305.58486    5073.1368   -12782.749    23887.872 
  166000    298.70987    9806.4348   -12782.727    23887.872 
  167000    298.96366    5449.9899   -12782.762    23887.872 
  168000     295.9071    4665.6759   -12782.743    23887.872 
  169000    299.19951    5138.7692   -12782.744    23887.872 
  170000    293.15796    8633.0159   -12782.723    23887.872 
  171000     304.8688    7437.1794   -12782.752    23887.872 
  172000    305.28426    3555.8219   -12782.741    23887.872 
  173000    301.73382    6613.3275   -12782.739    23887.872 
  174000    305.89171    9201.4499   -12782.768    23887.872 
  175000    308.36956    3789.3871   -12782.761    23887.872 
  176000    302.04648    6526.1912   -12782.758    23887.872 
  177000    299.77473    9001.1641   -12782.754    23887.872 
  178000    306.26505    6672.9641   -12782.757    23887.872 
  179000    296.83144    2154.3815   -12782.718    23887.872 
  180000    304.31022    8674.3794   -12782.734    23887.872 
  181000    306.98294    4871.0716   -12782.759    23887.872 
  182000    302.21972    7531.5144   -12782.755    23887.872 
  183000    298.79326    6663.3721   -12782.754    23887.872 
  184000     298.8192    6538.1317    -12782.72    23887.872 
  185000    302.18583    6679.0712   -12782.729    23887.872 
  186000    304.07792    6791.6305   -12782.753    23887.872 
  187000    304.29906    5248.4939   -12782.756    23887.872 
  188000    301.01374    6639.7589   -12782.711    23887.872 
  189000    298.28853    8108.1902   -12782.725    23887.872 
  190000     297.5183    6678.0321   -12782.703    23887.872 
  191000    296.03939    5548.1991   -12782.732    23887.872 
  192000    300.27136    9182.4899   -12782.738    23887.872 
  193000    296.97665    5355.2971   -12782.738    23887.872 
  194000    294.71536    4302.7299   -12782.734    23887.872 
  195000    299.65372    6785.1186   -12782.735    23887.872 
  196000    302.34346    7915.1329   -12782.756    23887.872 
  197000    300.81508     4621.524    -12782.76    23887.872 
  198000    306.48449    7473.3881    -12782.76    23887.872 
  199000    305.99923    4186.0743   -12782.768    23887.872 
  200000    300.45794    6139.7534   -12782.735    23887.872 
Loop time of 2194.71 on 16 procs for 100000 steps with 1920 atoms

Pair  time (%) = 1888.15 (86.0318)
Bond  time (%) = 0.041663 (0.00189834)
Neigh time (%) = 4.7106 (0.214634)
Comm  time (%) = 296.053 (13.4894)
Outpt time (%) = 0.00929856 (0.000423681)
Other time (%) = 5.74558 (0.261792)

Nlocal:    120 ave 127 max 113 min
Histogram: 1 2 1 2 1 4 1 1 0 3
Nghost:    4987.44 ave 5049 max 4935 min
Histogram: 3 0 2 1 2 4 0 1 2 1
Neighs:    52869.1 ave 56093 max 50184 min
Histogram: 3 1 1 1 4 2 1 0 0 3
FullNghs: 105738 ave 112610 max 99530 min
Histogram: 1 2 2 1 3 3 1 0 0 3

Total # of neighbors = 1691812
Ave neighs/atom = 881.152
Ave special neighs/atom = 0
Neighbor list builds = 554
Dangerous builds = 0
#	run             	10000
	unfix 			1
#--------------------------------------------------------------------------
#kappa
#--------------------------------------------------------------------------
log 	log_kappa_${iseed}.lammps
log 	log_kappa_1.lammps
