
#--------------------------------------------------------------------------
#nve rescale
#--------------------------------------------------------------------------
	velocity 		all create ${T_run} ${seed} rot yes dist gaussian
	velocity 		all create 300 ${seed} rot yes dist gaussian
	velocity 		all create 300 44444 rot yes dist gaussian

	fix 			1 all nve
	fix 			2 all temp/rescale 1 ${T_run} ${T_run} 0.01 1.0
	fix 			2 all temp/rescale 1 300 ${T_run} 0.01 1.0
	fix 			2 all temp/rescale 1 300 300 0.01 1.0
	timestep		${dt}
	timestep		0.001
	thermo_style  		custom step temp press etotal vol
	thermo			1000
	run             	100000	
Memory usage per processor = 3.08818 Mbytes
Step Temp Press TotEng Volume 
       0          300    178738.73   -12581.384    23887.872 
    1000          300    12322.035   -12770.612    23887.872 
    2000          300    30233.738   -12785.986    23887.872 
    3000          300    7100.8818   -12779.823    23887.872 
    4000          300   -4357.6887   -12780.094    23887.872 
    5000          300   -2831.5109   -12783.905    23887.872 
    6000          300     16494.02   -12782.604    23887.872 
    7000          300    18085.669    -12782.18    23887.872 
    8000          300   -976.22718   -12781.409    23887.872 
    9000          300    -1199.805   -12779.674    23887.872 
   10000          300    7532.9072   -12781.223    23887.872 
   11000          300    11515.061   -12781.111    23887.872 
   12000          300     7031.906   -12782.356    23887.872 
   13000          300   -525.85715   -12782.416    23887.872 
   14000          300    4410.0188   -12781.698    23887.872 
   15000          300    8736.2051   -12782.347    23887.872 
   16000          300    7712.6419   -12782.846    23887.872 
   17000          300    3275.8592   -12781.365    23887.872 
   18000          300    2871.5383    -12781.79    23887.872 
   19000          300     5717.874   -12783.902    23887.872 
   20000          300    7843.4784   -12780.963    23887.872 
   21000          300    4116.5167   -12781.602    23887.872 
   22000          300    2319.9703   -12784.236    23887.872 
   23000          300     6265.474   -12784.425    23887.872 
   24000          300    6485.8152    -12783.07    23887.872 
   25000          300    3808.8841   -12782.281    23887.872 
   26000          300    5839.6099   -12781.781    23887.872 
   27000          300    6541.3836   -12783.944    23887.872 
   28000          300    5117.3613   -12781.984    23887.872 
   29000          300    4455.8709   -12784.316    23887.872 
   30000          300     5442.139   -12781.839    23887.872 
   31000          300    5077.4904   -12782.523    23887.872 
   32000          300    7032.3107   -12783.536    23887.872 
   33000          300    6651.0001    -12782.35    23887.872 
   34000          300    7360.4794   -12782.695    23887.872 
   35000          300    5632.3915   -12784.192    23887.872 
   36000          300    4875.5539   -12781.838    23887.872 
   37000          300    6430.5286   -12782.206    23887.872 
   38000          300    4826.6936   -12783.949    23887.872 
   39000          300    5782.3261   -12783.307    23887.872 
   40000          300     6395.784   -12781.235    23887.872 
   41000          300    7634.2449   -12782.743    23887.872 
   42000          300    4995.4496   -12780.356    23887.872 
   43000          300    4976.0294    -12783.42    23887.872 
   44000          300    6854.7473   -12783.035    23887.872 
   45000          300    7847.5552   -12782.732    23887.872 
   46000          300    4828.0451   -12783.628    23887.872 
   47000          300    4839.9964   -12783.092    23887.872 
   48000          300    7162.6432   -12782.208    23887.872 
   49000          300    6166.3885   -12782.293    23887.872 
   50000          300    8369.1329    -12782.15    23887.872 
   51000          300    5504.4132   -12783.184    23887.872 
   52000          300    3855.6266   -12782.094    23887.872 
   53000          300    5594.3969   -12784.163    23887.872 
   54000          300    9148.7882   -12783.495    23887.872 
   55000          300    4801.6609   -12784.139    23887.872 
   56000          300    2907.0242   -12782.955    23887.872 
   57000          300     5456.707    -12782.98    23887.872 
   58000          300    7878.3446   -12784.779    23887.872 
   59000          300    5908.3988   -12781.293    23887.872 
   60000          300    4337.1975   -12784.956    23887.872 
   61000          300    2962.6908   -12781.837    23887.872 
   62000          300    6768.6714   -12782.395    23887.872 
   63000          300    7594.1403   -12782.452    23887.872 
   64000          300    6940.1954   -12783.051    23887.872 
   65000          300    4846.2949   -12780.478    23887.872 
   66000          300    5599.7097   -12781.521    23887.872 
   67000          300    7443.3274   -12783.124    23887.872 
   68000          300    4319.8557    -12783.88    23887.872 
   69000          300    3716.8513   -12781.241    23887.872 
   70000          300    7508.0914   -12781.929    23887.872 
   71000          300    7554.2301   -12780.161    23887.872 
   72000          300    6108.7639   -12783.628    23887.872 
   73000          300    4099.2107   -12783.166    23887.872 
   74000          300    7057.2663   -12782.496    23887.872 
   75000          300    9308.4375   -12783.079    23887.872 
   76000          300    5157.7459    -12782.93    23887.872 
   77000          300    6630.3061   -12783.368    23887.872 
   78000          300    6170.2772   -12784.427    23887.872 
   79000          300    7305.2451   -12783.831    23887.872 
   80000          300    7744.7301   -12780.842    23887.872 
   81000          300    3861.7659   -12783.062    23887.872 
   82000          300    5409.2015   -12783.451    23887.872 
   83000    299.99148    7314.1477   -12783.511    23887.872 
   84000          300    7687.9055   -12783.756    23887.872 
   85000          300    5850.0206   -12781.654    23887.872 
   86000          300    6422.4647   -12783.354    23887.872 
   87000          300    8087.3396   -12783.648    23887.872 
   88000          300    6579.9046   -12783.402    23887.872 
   89000          300    6360.9254   -12783.224    23887.872 
   90000          300    6238.1758   -12782.409    23887.872 
   91000          300    6769.5084    -12784.23    23887.872 
   92000          300    7478.0144   -12784.101    23887.872 
   93000          300    9269.7838   -12780.627    23887.872 
   94000          300    4463.3908   -12784.391    23887.872 
   95000          300    2499.5759   -12783.486    23887.872 
   96000          300    6661.2805   -12782.572    23887.872 
   97000          300    7993.4278   -12783.148    23887.872 
   98000          300    4149.9433   -12782.616    23887.872 
   99000          300    4724.9342   -12782.366    23887.872 
  100000          300    8224.5879   -12780.513    23887.872 
Loop time of 2111.79 on 16 procs for 100000 steps with 1920 atoms

Pair  time (%) = 1873.95 (88.7377)
Bond  time (%) = 0.0463178 (0.0021933)
Neigh time (%) = 4.36344 (0.206623)
Comm  time (%) = 226.033 (10.7034)
Outpt time (%) = 0.00825077 (0.000390701)
Other time (%) = 7.38609 (0.349755)

Nlocal:    120 ave 130 max 111 min
Histogram: 2 0 1 3 1 5 2 1 0 1
Nghost:    4964.69 ave 5004 max 4926 min
Histogram: 1 1 2 2 3 2 2 0 1 2
Neighs:    52867.1 ave 57347 max 48901 min
Histogram: 2 0 2 2 1 4 4 0 0 1
FullNghs: 105734 ave 115066 max 97459 min
Histogram: 2 0 1 3 1 5 2 1 0 1

Total # of neighbors = 1691746
Ave neighs/atom = 881.118
Ave special neighs/atom = 0
Neighbor list builds = 515
Dangerous builds = 0
#	run             	1000
	unfix 			1
	unfix 			2
#--------------------------------------------------------------------------
#nve
#--------------------------------------------------------------------------
	fix 			1 all nve
	timestep		${dt}
	timestep		0.001
	thermo_style  		custom step temp press etotal vol
	thermo			1000
	run             	100000	
Memory usage per processor = 3.54976 Mbytes
Step Temp Press TotEng Volume 
  100000          300    8224.5879   -12780.513    23887.872 
  101000    307.77753    9670.2439   -12780.545    23887.872 
  102000    309.56633    7059.3273   -12780.523    23887.872 
  103000    308.76838    5609.9997   -12780.556    23887.872 
  104000    307.38739    6090.5364   -12780.525    23887.872 
  105000    303.85568    6534.9452   -12780.506    23887.872 
  106000     301.8852    7439.9021   -12780.507    23887.872 
  107000    303.53022     6327.765   -12780.527    23887.872 
  108000    298.06808    9132.6188   -12780.513    23887.872 
  109000    303.62997    8013.0622   -12780.534    23887.872 
  110000    308.55853    4269.3532   -12780.533    23887.872 
  111000    309.44161    6705.4021   -12780.527    23887.872 
  112000    311.28957    8709.6116   -12780.551    23887.872 
  113000    313.25749    5657.4882   -12780.531    23887.872 
  114000    302.24409    6131.5393   -12780.557    23887.872 
  115000    304.48552    6787.2798   -12780.523    23887.872 
  116000    297.96566    8674.1818   -12780.513    23887.872 
  117000    303.87371    7540.2908   -12780.528    23887.872 
  118000    303.88768    4444.8599   -12780.529    23887.872 
  119000    304.35125    6805.5633   -12780.529    23887.872 
  120000    306.09124    7006.6996    -12780.52    23887.872 
  121000    303.78387    5643.6852   -12780.524    23887.872 
  122000     309.6488    6506.0544   -12780.549    23887.872 
  123000    301.12519    6833.1827   -12780.512    23887.872 
  124000    309.28265    7574.4608   -12780.536    23887.872 
  125000    313.41659    3754.9434   -12780.558    23887.872 
  126000    302.42898    6138.6055   -12780.502    23887.872 
  127000    307.62545    4734.2871   -12780.531    23887.872 
  128000    309.08248    9593.3617   -12780.539    23887.872 
  129000    305.43049    8260.0916   -12780.544    23887.872 
  130000    304.54235    4720.3024   -12780.531    23887.872 
  131000    301.69014     5018.704   -12780.513    23887.872 
  132000    306.99223    9783.8388   -12780.557    23887.872 
  133000    303.81817    4716.5774   -12780.523    23887.872 
  134000    301.56017    2300.1808   -12780.528    23887.872 
  135000    309.39299    9548.3875   -12780.522    23887.872 
  136000    302.05095    7644.0464   -12780.516    23887.872 
  137000    303.68221    3560.4107   -12780.511    23887.872 
  138000    300.86201    9076.7022   -12780.518    23887.872 
  139000    306.50124    4034.7908    -12780.53    23887.872 
  140000    310.81179    5202.5921   -12780.574    23887.872 
  141000    305.50095    8136.3174   -12780.538    23887.872 
  142000    301.35152    6713.1797   -12780.528    23887.872 
  143000    303.70806    6255.3147    -12780.53    23887.872 
  144000    307.73241    4981.4453   -12780.541    23887.872 
  145000    304.72993    9541.7481   -12780.519    23887.872 
  146000    306.88429    7510.3635   -12780.524    23887.872 
  147000    300.89791    5957.3488   -12780.514    23887.872 
  148000    310.71829    6835.4558   -12780.556    23887.872 
  149000    309.45153    6801.1724   -12780.564    23887.872 
  150000    306.60313    3393.6364   -12780.534    23887.872 
  151000      310.188    5946.0534   -12780.553    23887.872 
  152000    305.80499    7568.2083   -12780.526    23887.872 
  153000    301.65698    7013.6655    -12780.53    23887.872 
  154000    305.97369    5586.2926   -12780.546    23887.872 
  155000    312.85992    6021.2095   -12780.579    23887.872 
  156000    303.52123    7036.3441   -12780.511    23887.872 
  157000    305.08833     4360.959    -12780.53    23887.872 
  158000    317.26929    5051.4407    -12780.56    23887.872 
  159000    310.12483    10297.911   -12780.564    23887.872 
  160000    307.54345    4948.9236   -12780.554    23887.872 
  161000    305.00368    5945.9285   -12780.539    23887.872 
  162000    308.46535    6678.4657   -12780.542    23887.872 
  163000    303.83954    8378.2573   -12780.523    23887.872 
  164000    308.78834    6707.5703   -12780.549    23887.872 
  165000    311.79784    6883.3365   -12780.569    23887.872 
  166000    301.02235     4376.472    -12780.53    23887.872 
  167000     308.5481    7027.7499   -12780.553    23887.872 
  168000    304.34799    5858.3623   -12780.535    23887.872 
  169000    308.41733    7632.9297   -12780.543    23887.872 
  170000    310.85604    6931.5301   -12780.544    23887.872 
  171000    307.00605    6049.4115   -12780.553    23887.872 
  172000    309.36248    4575.2475   -12780.546    23887.872 
  173000     308.8972    6833.0033    -12780.52    23887.872 
  174000    311.06388    7235.2768   -12780.539    23887.872 
  175000    302.97607    3800.1553   -12780.531    23887.872 
  176000    306.97724    8157.6632   -12780.526    23887.872 
  177000    310.22877    7072.4541   -12780.534    23887.872 
  178000    303.51857    5035.0851   -12780.524    23887.872 
  179000    305.40445    4686.3994    -12780.52    23887.872 
  180000    305.06736    6972.1174   -12780.529    23887.872 
  181000    309.99211    6491.0848   -12780.544    23887.872 
  182000    307.43155    3205.3671   -12780.544    23887.872 
  183000    301.21769    7121.8421   -12780.522    23887.872 
  184000    312.19635    6695.8523   -12780.546    23887.872 
  185000    304.99277    5335.4933   -12780.515    23887.872 
  186000    307.98329    6614.7632   -12780.525    23887.872 
  187000    310.47506    6492.1776   -12780.534    23887.872 
  188000    307.08914    6313.8448    -12780.54    23887.872 
  189000    306.91566    4818.8953   -12780.525    23887.872 
  190000    308.96071    4227.4069   -12780.546    23887.872 
  191000    308.02954    8982.0587   -12780.541    23887.872 
  192000    301.72188    5045.7355   -12780.516    23887.872 
  193000    302.60404    6246.8654   -12780.537    23887.872 
  194000     308.9728    6152.4113   -12780.531    23887.872 
  195000    305.33662     4404.481    -12780.53    23887.872 
  196000    302.92435     5953.336   -12780.523    23887.872 
  197000    302.13007    10140.763   -12780.506    23887.872 
  198000      305.298     5403.464   -12780.539    23887.872 
  199000    299.86285    5436.4063   -12780.501    23887.872 
  200000    305.92899    4822.0498   -12780.517    23887.872 
Loop time of 2117.96 on 16 procs for 100000 steps with 1920 atoms

Pair  time (%) = 1877.65 (88.6538)
Bond  time (%) = 0.0459098 (0.00216765)
Neigh time (%) = 4.79128 (0.226222)
Comm  time (%) = 229.652 (10.8431)
Outpt time (%) = 0.00950003 (0.000448547)
Other time (%) = 5.80903 (0.274275)

Nlocal:    120 ave 128 max 114 min
Histogram: 1 2 3 1 2 4 0 2 0 1
Nghost:    4962.62 ave 4979 max 4928 min
Histogram: 1 0 2 0 0 1 3 3 3 3
Neighs:    52874.4 ave 56553 max 50083 min
Histogram: 1 1 3 2 4 2 0 2 0 1
FullNghs: 105749 ave 113230 max 100307 min
Histogram: 1 3 2 1 3 3 1 1 0 1

Total # of neighbors = 1691980
Ave neighs/atom = 881.24
Ave special neighs/atom = 0
Neighbor list builds = 565
Dangerous builds = 0
#	run             	10000
	unfix 			1
#--------------------------------------------------------------------------
#kappa
#--------------------------------------------------------------------------
log 	log_kappa_${iseed}.lammps
log 	log_kappa_4.lammps
