  LAMMPS description
 
    1920   atoms
       0   bonds
       0   angles
       0   dihedrals
 
       1   atom types
       0   bond types
       0   angle types
       0   dihedral types
 
       0   28.000000     xlo xhi
       0   28.000000     ylo yhi
       0   28.000000     zlo zhi
  0.0000000      0.0000000      0.0000000     xy xz yz

  Masses

       1   12.010000

   Atoms

       1       1       1    0.000000    2.340000    2.600000   -0.594000
       2       1       1    0.000000    1.987155    2.956995    0.714338
       3       1       1    0.000000    1.500434    2.940008   -1.703884
       4       1       1    0.000000    0.235806    3.513042   -1.426594
       5       1       1    0.000000    2.618773    0.968831   -2.051065
       6       1       1    0.000000    2.480394   -0.416992   -2.204426
       7       1       1    0.000000    3.228895    1.475172   -0.850431
       8       1       1    0.000000    3.745183    0.652630    0.181824
       9       1       1    0.000000    1.686151    1.875098   -2.707910
      10       1       1    0.000000    0.586447    1.336233   -3.439599
      11       1       1    0.000000    0.748821    3.661900    0.961066
      12       1       1    0.000000   -0.148995    3.978378   -0.085594
      13       1       1    0.000000    0.325456    2.939090    2.147594
      14       1       1    0.000000   -1.029201    2.597334    2.310116
      15       1       1    0.000000    2.488053    2.162195    1.822994
      16       1       1    0.000000    3.224247    0.993106    1.518378
      17       1       1    0.000000    1.368714    2.136945    2.769997
      18       1       1    0.000000    0.996531    0.975430    3.500258
      19       1       1    0.000000   -1.535852    3.507951    0.073393
      20       1       1    0.000000   -1.974028    2.893722    1.271178
      21       1       1    0.000000   -2.019703    2.898640   -1.167747
      22       1       1    0.000000   -2.969516    1.851929   -1.170672
      23       1       1    0.000000   -0.897770    2.871775   -2.064198
      24       1       1    0.000000   -0.727399    1.824876   -2.993513
      25       1       1    0.000000   -2.963555    1.800557    1.261980
      26       1       1    0.000000   -3.560409    1.297793    0.063358
      27       1       1    0.000000   -2.470864    0.907264    2.282876
      28       1       1    0.000000   -2.627831   -0.478104    2.133096
      29       1       1    0.000000   -1.397408    1.446518    3.114092
      30       1       1    0.000000   -0.433203    0.622767    3.762956
      31       1       1    0.000000   -3.746317   -0.166566   -0.107794
      32       1       1    0.000000   -3.238489   -0.989009    0.929875
      33       1       1    0.000000   -3.217949   -0.505062   -1.445495
      34       1       1    0.000000   -2.486723   -1.674173   -1.753594
      35       1       1    0.000000   -2.690975    0.727720   -2.016915
      36       1       1    0.000000   -1.635381    0.734659   -2.948125
      37       1       1    0.000000   -2.339941   -2.106105    0.668017
      38       1       1    0.000000   -1.982551   -2.461358   -0.641091
      39       1       1    0.000000   -1.499104   -2.444668    1.778503
      40       1       1    0.000000   -0.231574   -3.007558    1.499518
      41       1       1    0.000000   -1.684894   -1.379218    2.781281
      42       1       1    0.000000   -0.581049   -0.834038    3.501463
      43       1       1    0.000000   -0.740538   -3.161308   -0.881165
      44       1       1    0.000000    0.156129   -3.479384    0.163918
      45       1       1    0.000000   -0.312894   -2.432060   -2.058659
      46       1       1    0.000000    1.039500   -2.093050   -2.223175
      47       1       1    0.000000   -1.354617   -1.632886   -2.683637
      48       1       1    0.000000   -0.980391   -0.475644   -3.416879
      49       1       1    0.000000    1.544892   -3.015769    0.004966
      50       1       1    0.000000    1.988208   -2.404413   -1.193580
      51       1       1    0.000000    2.030174   -2.402619    1.248461
      52       1       1    0.000000    2.993415   -1.363932    1.255958
      53       1       1    0.000000    0.902402   -2.370135    2.137361
      54       1       1    0.000000    0.731689   -1.315336    3.053176
      55       1       1    0.000000    2.981577   -1.313206   -1.186589
      56       1       1    0.000000    3.582046   -0.816014    0.013876
      57       1       1    0.000000    1.406862   -0.949088   -3.037208
      58       1       1    0.000000    0.445467   -0.124648   -3.689198
      59       1       1    0.000000    2.727027   -0.240168    2.113841
      60       1       1    0.000000    1.653737   -0.237057    3.026137
      61       2       1    0.000000    9.227065    9.679764   -0.804389
      62       2       1    0.000000    8.842919   10.157469    0.460528
      63       2       1    0.000000    8.342056    9.776579   -1.924602
      64       2       1    0.000000    7.037094   10.269258   -1.712732
      65       2       1    0.000000    9.566268    7.888196   -2.085471
      66       2       1    0.000000    9.534996    6.489090   -2.111367
      67       2       1    0.000000   10.144572    8.552270   -0.944361
      68       2       1    0.000000   10.693290    7.857563    0.170371
      69       2       1    0.000000    8.586797    8.662030   -2.846184
      70       2       1    0.000000    7.544860    8.015913   -3.583563
      71       2       1    0.000000    7.548479   10.807450    0.646412
      72       2       1    0.000000    6.640184   10.866402   -0.439160
      73       2       1    0.000000    7.130795   10.185981    1.896274
      74       2       1    0.000000    5.801324    9.751085    2.085037
      75       2       1    0.000000    9.323466    9.443024    1.632687
      76       2       1    0.000000   10.130249    8.300998    1.460419
      77       2       1    0.000000    8.197775    9.438749    2.547895
      78       2       1    0.000000    7.889720    8.339161    3.386635
      79       2       1    0.000000    5.307251   10.287942   -0.268283
      80       2       1    0.000000    4.898727    9.777142    0.977013
      81       2       1    0.000000    4.806113    9.608893   -1.457431
      82       2       1    0.000000    3.926068    8.513173   -1.337950
      83       2       1    0.000000    5.939655    9.564270   -2.352000
      84       2       1    0.000000    6.181272    8.473795   -3.218501
      85       2       1    0.000000    3.943877    8.671414    1.075687
      86       2       1    0.000000    3.351188    8.040550   -0.059420
      87       2       1    0.000000    4.469424    7.942080    2.199455
      88       2       1    0.000000    4.408736    6.542075    2.182129
      89       2       1    0.000000    5.488300    8.638977    2.984235
      90       2       1    0.000000    6.492286    7.928973    3.714564
      91       2       1    0.000000    3.268415    6.553118   -0.081958
      92       2       1    0.000000    3.823104    5.870116    1.040441
      93       2       1    0.000000    3.835726    6.116022   -1.380968
      94       2       1    0.000000    4.666249    4.989199   -1.542270
      95       2       1    0.000000    4.332817    7.314941   -2.030352
      96       2       1    0.000000    5.385439    7.308855   -2.967392
      97       2       1    0.000000    4.766203    4.758866    0.902576
      98       2       1    0.000000    5.167827    4.293153   -0.363084
      99       2       1    0.000000    5.644015    4.666942    2.021842
     100       2       1    0.000000    6.951192    4.201579    1.790570
     101       2       1    0.000000    5.394078    5.777785    2.943573
     102       2       1    0.000000    6.439892    6.433207    3.665410
     103       2       1    0.000000    6.452393    3.640760   -0.550494
     104       2       1    0.000000    7.353563    3.583217    0.533370
     105       2       1    0.000000    6.869848    4.274128   -1.790135
     106       2       1    0.000000    8.197351    4.700597   -1.982464
     107       2       1    0.000000    5.805423    5.017601   -2.438669
     108       2       1    0.000000    6.113547    6.111393   -3.281221
     109       2       1    0.000000    8.690295    4.141364    0.364105
     110       2       1    0.000000    9.104691    4.646833   -0.882844
     111       2       1    0.000000    9.192945    4.813005    1.562229
     112       2       1    0.000000   10.082719    5.903439    1.442685
     113       2       1    0.000000    8.046313    4.881250    2.442887
     114       2       1    0.000000    7.796823    5.983148    3.284663
     115       2       1    0.000000   10.058692    5.752477   -0.988385
     116       2       1    0.000000   10.648464    6.372848    0.153606
     117       2       1    0.000000    8.509526    5.804034   -2.892349
     118       2       1    0.000000    7.504888    6.519011   -3.616532
     119       2       1    0.000000    9.668389    7.103774    2.130753
     120       2       1    0.000000    8.605347    7.132909    3.052487
     121       3       1    0.000000    9.368613    2.613117    6.443681
     122       3       1    0.000000    8.998151    2.977366    7.747344
     123       3       1    0.000000    8.538558    2.943153    5.323192
     124       3       1    0.000000    7.266459    3.499204    5.589449
     125       3       1    0.000000    9.680339    0.982550    4.990189
     126       3       1    0.000000    9.525572   -0.404745    4.851509
     127       3       1    0.000000   10.279624    1.502567    6.196971
     128       3       1    0.000000   10.780255    0.689092    7.245585
     129       3       1    0.000000    8.737410    1.875122    4.326871
     130       3       1    0.000000    7.641349    1.321824    3.599690
     131       3       1    0.000000    7.754625    3.680000    7.972603
     132       3       1    0.000000    6.866482    3.982777    6.916341
     133       3       1    0.000000    7.318743    2.956668    9.150769
     134       3       1    0.000000    5.966156    2.614593    9.306872
     135       3       1    0.000000    9.496301    2.200624    8.868124
     136       3       1    0.000000   10.233855    1.033436    8.574469
     137       3       1    0.000000    8.356471    2.160720    9.786175
     138       3       1    0.000000    7.981383    1.010158   10.528824
     139       3       1    0.000000    5.479462    3.513229    7.064080
     140       3       1    0.000000    5.029548    2.907751    8.262456
     141       3       1    0.000000    4.999826    2.898109    5.819616
     142       3       1    0.000000    4.040090    1.856431    5.812705
     143       3       1    0.000000    6.139784    2.857306    4.944777
     144       3       1    0.000000    6.322195    1.799488    4.035004
     145       3       1    0.000000    4.036931    1.816819    8.256342
     146       3       1    0.000000    3.444513    1.312917    7.054660
     147       3       1    0.000000    4.527625    0.931811    9.288295
     148       3       1    0.000000    4.396921   -0.455703    9.142227
     149       3       1    0.000000    5.595038    1.474012   10.124613
     150       3       1    0.000000    6.553561    0.656439   10.791138
     151       3       1    0.000000    3.291709   -0.157844    6.896746
     152       3       1    0.000000    3.801716   -0.972200    7.938690
     153       3       1    0.000000    3.827923   -0.505917    5.569254
     154       3       1    0.000000    4.565523   -1.676160    5.277064
     155       3       1    0.000000    4.325129    0.724703    4.969588
     156       3       1    0.000000    5.402632    0.719119    4.062644
     157       3       1    0.000000    4.693069   -2.098385    7.695166
     158       3       1    0.000000    5.055835   -2.467314    6.393069
     159       3       1    0.000000    5.525234   -2.422344    8.815864
     160       3       1    0.000000    6.795171   -2.987023    8.552238
     161       3       1    0.000000    5.327908   -1.354334    9.813416
     162       3       1    0.000000    6.418574   -0.808415   10.554297
     163       3       1    0.000000    6.300669   -3.167335    6.162475
     164       3       1    0.000000    7.191245   -3.465308    7.220407
     165       3       1    0.000000    6.733069   -2.447335    4.977360
     166       3       1    0.000000    8.088547   -2.103514    4.822847
     167       3       1    0.000000    5.693849   -1.650116    4.342891
     168       3       1    0.000000    6.066885   -0.494248    3.604384
     169       3       1    0.000000    8.577055   -2.990169    7.073668
     170       3       1    0.000000    9.022031   -2.381611    5.876178
     171       3       1    0.000000    9.055172   -2.378895    8.315982
     172       3       1    0.000000   10.000842   -1.328541    8.317816
     173       3       1    0.000000    7.921280   -2.344166    9.199284
     174       3       1    0.000000    7.738938   -1.293262   10.121446
     175       3       1    0.000000   10.008827   -1.286967    5.885729
     176       3       1    0.000000   10.598939   -0.777457    7.084913
     177       3       1    0.000000    8.459510   -0.955089    4.016282
     178       3       1    0.000000    7.498505   -0.139006    3.351846
     179       3       1    0.000000    9.703121   -0.195943    9.147565
     180       3       1    0.000000    8.643434   -0.200250   10.074220
     181       4       1    0.000000    2.026727    9.864425    5.850788
     182       4       1    0.000000    1.594881   10.462111    7.055338
     183       4       1    0.000000    1.084675    9.607694    4.805205
     184       4       1    0.000000   -0.258547    9.978699    4.977635
     185       4       1    0.000000    2.482101    7.894722    4.810381
     186       4       1    0.000000    2.589623    6.505664    4.947112
     187       4       1    0.000000    3.000704    8.762864    5.841891
     188       4       1    0.000000    3.589719    8.242609    7.035350
     189       4       1    0.000000    1.426391    8.463098    3.977492
     190       4       1    0.000000    0.451338    7.664885    3.311589
     191       4       1    0.000000    0.229844   10.980061    7.216905
     192       4       1    0.000000   -0.670213   10.710460    6.161723
     193       4       1    0.000000   -0.164247   10.510599    8.552240
     194       4       1    0.000000   -1.444058    9.967179    8.816382
     195       4       1    0.000000    2.074992    9.847893    8.292298
     196       4       1    0.000000    3.011079    8.790023    8.281477
     197       4       1    0.000000    0.954284    9.843259    9.191557
     198       4       1    0.000000    0.757812    8.788803   10.106188
     199       4       1    0.000000   -1.926540   10.034409    6.393112
     200       4       1    0.000000   -2.289940    9.669486    7.699345
     201       4       1    0.000000   -2.442100    9.266229    5.271479
     202       4       1    0.000000   -3.201796    8.112791    5.560535
     203       4       1    0.000000   -1.311354    9.201535    4.346068
     204       4       1    0.000000   -0.963461    8.048141    3.594730
     205       4       1    0.000000   -3.211290    8.567331    7.945799
     206       4       1    0.000000   -3.739386    7.772620    6.895368
     207       4       1    0.000000   -2.615774    8.029858    9.146185
     208       4       1    0.000000   -2.487625    6.639186    9.275857
     209       4       1    0.000000   -1.656301    8.899703    9.813678
     210       4       1    0.000000   -0.569299    8.324294   10.541062
     211       4       1    0.000000   -3.587171    6.303476    7.048815
     212       4       1    0.000000   -3.000649    5.775649    8.239496
     213       4       1    0.000000   -3.002437    5.752025    5.811261
     214       4       1    0.000000   -2.075152    4.689726    5.799887
     215       4       1    0.000000   -2.689730    6.876286    4.981087
     216       4       1    0.000000   -1.639387    6.845991    4.042680
     217       4       1    0.000000   -2.024399    4.675862    8.233867
     218       4       1    0.000000   -1.591416    4.078661    7.030957
     219       4       1    0.000000   -1.084270    4.910105    9.286492
     220       4       1    0.000000    0.260083    4.532766    9.116868
     221       4       1    0.000000   -1.430765    6.060889   10.103376
     222       4       1    0.000000   -0.453469    6.855861   10.768981
     223       4       1    0.000000   -0.228450    3.548801    6.872887
     224       4       1    0.000000    0.679080    3.806939    7.929496
     225       4       1    0.000000    0.162062    4.004756    5.530673
     226       4       1    0.000000    1.442975    4.554259    5.269327
     227       4       1    0.000000   -0.960200    4.682947    4.894623
     228       4       1    0.000000   -0.771384    5.718219    3.951743
     229       4       1    0.000000    1.950360    4.467163    7.693636
     230       4       1    0.000000    2.303212    4.839842    6.387554
     231       4       1    0.000000    2.437111    5.263476    8.809790
     232       4       1    0.000000    3.185084    6.424655    8.516982
     233       4       1    0.000000    1.313982    5.316470    9.744353
     234       4       1    0.000000    0.964968    6.471954   10.493119
     235       4       1    0.000000    3.185230    5.971097    6.140669
     236       4       1    0.000000    3.712073    6.773013    7.185091
     237       4       1    0.000000    1.640895    5.626914    4.274115
     238       4       1    0.000000    0.558409    6.191318    3.527617
     239       4       1    0.000000    2.696301    7.659927    9.109474
     240       4       1    0.000000    1.637900    7.676431   10.036287
     241       5       1    0.000000   16.156586    2.790306   -0.979079
     242       5       1    0.000000   15.734063    3.339708    0.246174
     243       5       1    0.000000   15.246308    2.687398   -2.071765
     244       5       1    0.000000   13.918419    3.107199   -1.888624
     245       5       1    0.000000   16.570994    0.896853   -2.121913
     246       5       1    0.000000   16.606688   -0.500499   -2.047896
     247       5       1    0.000000   17.110841    1.679745   -1.034160
     248       5       1    0.000000   17.679173    1.092604    0.136992
     249       5       1    0.000000   15.550933    1.554538   -2.937677
     250       5       1    0.000000   14.550815    0.820139   -3.644473
     251       5       1    0.000000   14.403606    3.931060    0.400964
     252       5       1    0.000000   13.503349    3.802986   -0.681216
     253       5       1    0.000000   13.989693    3.396165    1.696141
     254       5       1    0.000000   12.684456    2.904433    1.920121
     255       5       1    0.000000   16.210952    2.693634    1.462308
     256       5       1    0.000000   17.100657    1.603068    1.400733
     257       5       1    0.000000   15.076397    2.684023    2.348410
     258       5       1    0.000000   14.826312    1.632591    3.257629
     259       5       1    0.000000   12.202869    3.183093   -0.487095
     260       5       1    0.000000   11.815781    2.755503    0.793221
     261       5       1    0.000000   11.705122    2.445050   -1.642174
     262       5       1    0.000000   10.889001    1.316137   -1.429882
     263       5       1    0.000000   12.852462    2.363881   -2.529377
     264       5       1    0.000000   13.156212    1.241316   -3.336370
     265       5       1    0.000000   10.898164    1.638040    0.978974
     266       5       1    0.000000   10.341460    0.918186   -0.113891
     267       5       1    0.000000   11.439082    1.023012    2.161657
     268       5       1    0.000000   11.490874   -0.374624    2.231629
     269       5       1    0.000000   12.424263    1.822100    2.883828
     270       5       1    0.000000   13.466771    1.189260    3.635614
     271       5       1    0.000000   10.392434   -0.558940   -0.028359
     272       5       1    0.000000   10.955581   -1.152146    1.139786
     273       5       1    0.000000   10.968332   -1.069682   -1.289030
     274       5       1    0.000000   11.847412   -2.167347   -1.353930
     275       5       1    0.000000   11.372422    0.090142   -2.039381
     276       5       1    0.000000   12.422318    0.055875   -2.978004
     277       5       1    0.000000   11.908479   -2.260884    1.086447
     278       5       1    0.000000   12.326554   -2.808922   -0.140521
     279       5       1    0.000000   12.815002   -2.175880    2.186527
     280       5       1    0.000000   14.143110   -2.607400    2.009056
     281       5       1    0.000000   12.508912   -1.037856    3.047961
     282       5       1    0.000000   13.508804   -0.303640    3.757237
     283       5       1    0.000000   13.654097   -3.409717   -0.293402
     284       5       1    0.000000   14.555885   -3.292713    0.792298
     285       5       1    0.000000   14.064233   -2.884206   -1.596751
     286       5       1    0.000000   15.369736   -2.388539   -1.816451
     287       5       1    0.000000   12.975607   -2.171548   -2.249918
     288       5       1    0.000000   13.223598   -1.115298   -3.157016
     289       5       1    0.000000   15.854437   -2.664359    0.595531
     290       5       1    0.000000   16.234224   -2.229672   -0.684691
     291       5       1    0.000000   16.346265   -1.920402    1.746697
     292       5       1    0.000000   17.151080   -0.785066    1.527411
     293       5       1    0.000000   15.210932   -1.857276    2.652117
     294       5       1    0.000000   14.906273   -0.729313    3.454492
     295       5       1    0.000000   17.152232   -1.112941   -0.868169
     296       5       1    0.000000   17.708956   -0.387320    0.219618
     297       5       1    0.000000   15.628848   -1.302876   -2.776981
     298       5       1    0.000000   14.587387   -0.672402   -3.531061
     299       5       1    0.000000   16.682479    0.441673    2.144150
     300       5       1    0.000000   15.628256    0.463827    3.079045
     301       6       1    0.000000   23.101184    9.869037   -0.864556
     302       6       1    0.000000   22.689018   10.366128    0.386721
     303       6       1    0.000000   22.192893    9.823352   -1.964101
     304       6       1    0.000000   20.864733   10.248415   -1.769445
     305       6       1    0.000000   23.535359    8.036881   -2.106072
     306       6       1    0.000000   23.567288    6.637827   -2.087296
     307       6       1    0.000000   24.058302    8.766564   -0.978495
     308       6       1    0.000000   24.653467    8.141235    0.158162
     309       6       1    0.000000   22.506640    8.723952   -2.879686
     310       6       1    0.000000   21.501181    8.010223   -3.604290
     311       6       1    0.000000   21.350560   10.917158    0.559733
     312       6       1    0.000000   20.447078   10.868586   -0.522582
     313       6       1    0.000000   20.954053   10.285496    1.811407
     314       6       1    0.000000   19.648291    9.818729    2.043724
     315       6       1    0.000000   23.198200    9.689909    1.580346
     316       6       1    0.000000   24.088568    8.600993    1.451220
     317       6       1    0.000000   22.052148    9.609432    2.461518
     318       6       1    0.000000   21.806726    8.503702    3.299794
     319       6       1    0.000000   19.164274   10.211585   -0.334743
     320       6       1    0.000000   18.765175    9.737627    0.928371
     321       6       1    0.000000   18.665232    9.519127   -1.517394
     322       6       1    0.000000   17.834535    8.391083   -1.363811
     323       6       1    0.000000   19.800913    9.503200   -2.417567
     324       6       1    0.000000   20.109845    8.412904   -3.264268
     325       6       1    0.000000   17.826651    8.621700    1.060445
     326       6       1    0.000000   17.271991    7.944344   -0.065728
     327       6       1    0.000000   18.418297    7.942423    2.194900
     328       6       1    0.000000   18.478478    6.542598    2.205566
     329       6       1    0.000000   19.404110    8.703445    2.959578
     330       6       1    0.000000   20.451105    8.048007    3.678808
     331       6       1    0.000000   17.358034    6.457224   -0.053372
     332       6       1    0.000000   17.955099    5.820932    1.076363
     333       6       1    0.000000   17.927912    5.992775   -1.337379
     334       6       1    0.000000   18.810352    4.899255   -1.465926
     335       6       1    0.000000   18.330442    7.197259   -2.022933
     336       6       1    0.000000   19.383053    7.212539   -2.960078
     337       6       1    0.000000   18.911313    4.717333    0.968005
     338       6       1    0.000000   19.316560    4.213562   -0.281411
     339       6       1    0.000000   19.815283    4.738480    2.075199
     340       6       1    0.000000   21.145041    4.305135    1.883364
     341       6       1    0.000000   19.500309    5.843899    2.983714
     342       6       1    0.000000   20.505104    6.551991    3.715848
     343       6       1    0.000000   20.651797    3.642858   -0.457268
     344       6       1    0.000000   21.561904    3.696715    0.626933
     345       6       1    0.000000   21.044840    4.251801   -1.726077
     346       6       1    0.000000   22.348671    4.746347   -1.937990
     347       6       1    0.000000   19.943992    4.955139   -2.360580
     348       6       1    0.000000   20.181224    6.050925   -3.221452
     349       6       1    0.000000   22.853268    4.354047    0.442459
     350       6       1    0.000000   23.237226    4.837301   -0.820202
     351       6       1    0.000000   23.334041    5.060226    1.618440
     352       6       1    0.000000   24.140514    6.203375    1.453781
     353       6       1    0.000000   22.211764    5.052364    2.537337
     354       6       1    0.000000   21.902778    6.145953    3.383605
     355       6       1    0.000000   24.153206    5.966775   -0.953105
     356       6       1    0.000000   24.701875    6.655994    0.165516
     357       6       1    0.000000   22.587860    5.866944   -2.851886
     358       6       1    0.000000   21.543731    6.513764   -3.584660
     359       6       1    0.000000   23.674680    7.394535    2.130475
     360       6       1    0.000000   22.615400    7.356120    3.056471
     361       7       1    0.000000   23.110218    2.782606    6.040339
     362       7       1    0.000000   22.689784    3.329656    7.267819
     363       7       1    0.000000   22.207543    2.696148    4.936697
     364       7       1    0.000000   20.876775    3.121498    5.109889
     365       7       1    0.000000   23.543643    0.902293    4.885649
     366       7       1    0.000000   23.603562   -0.495751    4.950643
     367       7       1    0.000000   24.067207    1.676962    5.984082
     368       7       1    0.000000   24.631333    1.081646    7.150717
     369       7       1    0.000000   22.523875    1.563693    4.070471
     370       7       1    0.000000   21.529447    0.827267    3.355094
     371       7       1    0.000000   21.355215    3.916917    7.418234
     372       7       1    0.000000   20.456637    3.796743    6.329574
     373       7       1    0.000000   20.943545    3.380231    8.716826
     374       7       1    0.000000   19.639743    2.878952    8.932542
     375       7       1    0.000000   23.169110    2.683098    8.479949
     376       7       1    0.000000   24.050761    1.586955    8.411375
     377       7       1    0.000000   22.034613    2.671981    9.369096
     378       7       1    0.000000   21.790479    1.610033   10.270783
     379       7       1    0.000000   19.162294    3.155571    6.520270
     380       7       1    0.000000   18.779001    2.716209    7.797694
     381       7       1    0.000000   18.678097    2.415843    5.365342
     382       7       1    0.000000   17.880089    1.275329    5.578446
     383       7       1    0.000000   19.814472    2.366895    4.460598
     384       7       1    0.000000   20.127631    1.244646    3.653235
     385       7       1    0.000000   17.865233    1.595841    7.973782
     386       7       1    0.000000   17.318344    0.870285    6.881521
     387       7       1    0.000000   18.414300    0.981462    9.151456
     388       7       1    0.000000   18.454904   -0.416030    9.221921
     389       7       1    0.000000   19.385778    1.787544    9.886736
     390       7       1    0.000000   20.428057    1.160343   10.641991
     391       7       1    0.000000   17.357425   -0.609264    6.956857
     392       7       1    0.000000   17.928164   -1.196240    8.126914
     393       7       1    0.000000   17.939056   -1.113274    5.691627
     394       7       1    0.000000   18.834423   -2.199427    5.627711
     395       7       1    0.000000   18.354626    0.055165    4.955965
     396       7       1    0.000000   19.410823    0.046000    4.023546
     397       7       1    0.000000   18.886558   -2.303077    8.068629
     398       7       1    0.000000   19.313605   -2.848354    6.842828
     399       7       1    0.000000   19.792353   -2.198047    9.164762
     400       7       1    0.000000   21.122503   -2.612493    8.985388
     401       7       1    0.000000   19.477425   -1.071198   10.036200
     402       7       1    0.000000   20.472034   -0.333238   10.748079
     403       7       1    0.000000   20.649033   -3.428479    6.690290
     404       7       1    0.000000   21.544741   -3.299867    7.776094
     405       7       1    0.000000   21.064153   -2.879930    5.401009