********************************************************************************
*                       GENERAL UTILITY LATTICE PROGRAM                        *
*                                 Julian Gale                                  *
*                      Nanochemistry Research Institute                        *
*                           Department of Chemistry                            *
*                    Curtin University, Western Australia                      *
********************************************************************************
* Version = 4.1.0 * Last modified =  21st June 2013                            *
********************************************************************************
*  optimise     - perform optimisation run                                     *
*  phonon       - calculate phonons for final geometry                         *
*  thermal      - calculate thermal conductivity for final geometry            *
*  nomodcoord   - do not mod input coordinates                                 *
*  molecule     - molecule option activated, Coulomb subtract within molecule  *
*  compare      - compare initial and final structures                         *
*  broaden_dos  - broaden density of states curves                             *
********************************************************************************

  Job Started  at 03:41.56 26th July       2013                               

  Number of CPUs =     1


  Total number of configurations input =   1

********************************************************************************
*  Input for Configuration =   1                                               *
********************************************************************************

  Formula = C1920                                                       

  Number of irreducible atoms/shells =    1920


  Total number atoms/shells =    1920

  Dimensionality = 3               :  Bulk   



  Cartesian lattice vectors (Angstroms) :

       28.000000    0.000000    0.000000
        0.000000   28.000000    0.000000
        0.000000    0.000000   28.000000

  Cell parameters (Angstroms/Degrees):

  a =      28.0000    alpha =  90.0000
  b =      28.0000    beta  =  90.0000
  c =      28.0000    gamma =  90.0000

  Initial cell volume =       21952.000000 Angs**3

  Temperature of configuration =  300.0     K 

  Pressure of configuration =         0.000 GPa 

  Fractional coordinates of asymmetric unit :

--------------------------------------------------------------------------------
   No.  Atomic       x           y          z         Charge      Occupancy
        Label      (Frac)      (Frac)     (Frac)        (e)         (Frac)  
--------------------------------------------------------------------------------
      1 C1    c    0.083571    0.092857   -0.021214     0.00000    1.000000    
      2 C1    c    0.062500 *  0.108214 *  0.021214 *   0.00000    1.000000    
      3 C1    c    0.056429 *  0.092857 * -0.065357 *   0.00000    1.000000    
      4 C1    c    0.009000 *  0.108214 * -0.065357 *   0.00000    1.000000    
      5 C1    c    0.105714 *  0.024929 * -0.065357 *   0.00000    1.000000    
      6 C1    c    0.105714 * -0.024929 * -0.065357 *   0.00000    1.000000    
      7 C1    c    0.114286 *  0.051071 * -0.021214 *   0.00000    1.000000    
      8 C1    c    0.122500 *  0.025964 *  0.021214 *   0.00000    1.000000    
      9 C1    c    0.070000 *  0.051071 * -0.092857 *   0.00000    1.000000    
     10 C1    c    0.035714 *  0.025964 * -0.118929 *   0.00000    1.000000    
     11 C1    c    0.013107 *  0.124286 *  0.021214 *   0.00000    1.000000    
     12 C1    c   -0.013107 *  0.124286 * -0.021214 *   0.00000    1.000000    
     13 C1    c   -0.009000 *  0.108214 *  0.065357 *   0.00000    1.000000    
     14 C1    c   -0.056429 *  0.092857 *  0.065357 *   0.00000    1.000000    
     15 C1    c    0.071071 *  0.082500 *  0.065357 *   0.00000    1.000000    
     16 C1    c    0.100357 *  0.042143 *  0.065357 *   0.00000    1.000000    
     17 C1    c    0.026786 *  0.082500 *  0.092857 *   0.00000    1.000000    
     18 C1    c    0.013643 *  0.042143 *  0.118929 *   0.00000    1.000000    
     19 C1    c   -0.062500 *  0.108214 * -0.021214 *   0.00000    1.000000    
     20 C1    c   -0.083571 *  0.092857 *  0.021214 *   0.00000    1.000000    
     21 C1    c   -0.071071 *  0.082500 * -0.065357 *   0.00000    1.000000    
     22 C1    c   -0.100357 *  0.042143 * -0.065357 *   0.00000    1.000000    
     23 C1    c   -0.026786 *  0.082500 * -0.092857 *   0.00000    1.000000    
     24 C1    c   -0.013643 *  0.042143 * -0.118929 *   0.00000    1.000000    
     25 C1    c   -0.114286 *  0.051071 *  0.021214 *   0.00000    1.000000    
     26 C1    c   -0.122500 *  0.025964 * -0.021214 *   0.00000    1.000000    
     27 C1    c   -0.105714 *  0.024929 *  0.065357 *   0.00000    1.000000    
     28 C1    c   -0.105714 * -0.024929 *  0.065357 *   0.00000    1.000000    
     29 C1    c   -0.070000 *  0.051071 *  0.092857 *   0.00000    1.000000    
     30 C1    c   -0.035714 *  0.025964 *  0.118929 *   0.00000    1.000000    
     31 C1    c   -0.122500 * -0.025964 * -0.021214 *   0.00000    1.000000    
     32 C1    c   -0.114286 * -0.051071 *  0.021214 *   0.00000    1.000000    
     33 C1    c   -0.100357 * -0.042143 * -0.065357 *   0.00000    1.000000    
     34 C1    c   -0.071071 * -0.082500 * -0.065357 *   0.00000    1.000000    
     35 C1    c   -0.086786 *  0.000000 * -0.092857 *   0.00000    1.000000    
     36 C1    c   -0.044286 *  0.000000 * -0.118929 *   0.00000    1.000000    
     37 C1    c   -0.083571 * -0.092857 *  0.021214 *   0.00000    1.000000    
     38 C1    c   -0.062500 * -0.108214 * -0.021214 *   0.00000    1.000000    
     39 C1    c   -0.056429 * -0.092857 *  0.065357 *   0.00000    1.000000    
     40 C1    c   -0.009000 * -0.108214 *  0.065357 *   0.00000    1.000000    
     41 C1    c   -0.070000 * -0.051071 *  0.092857 *   0.00000    1.000000    
     42 C1    c   -0.035714 * -0.025964 *  0.118929 *   0.00000    1.000000    
     43 C1    c   -0.013107 * -0.124286 * -0.021214 *   0.00000    1.000000    
     44 C1    c    0.013107 * -0.124286 *  0.021214 *   0.00000    1.000000    
     45 C1    c    0.009000 * -0.108214 * -0.065357 *   0.00000    1.000000    
     46 C1    c    0.056429 * -0.092857 * -0.065357 *   0.00000    1.000000    
     47 C1    c   -0.026786 * -0.082500 * -0.092857 *   0.00000    1.000000    
     48 C1    c   -0.013643 * -0.042143 * -0.118929 *   0.00000    1.000000    
     49 C1    c    0.062500 * -0.108214 *  0.021214 *   0.00000    1.000000    
     50 C1    c    0.083571 * -0.092857 * -0.021214 *   0.00000    1.000000    
     51 C1    c    0.071071 * -0.082500 *  0.065357 *   0.00000    1.000000    
     52 C1    c    0.100357 * -0.042143 *  0.065357 *   0.00000    1.000000    
     53 C1    c    0.026786 * -0.082500 *  0.092857 *   0.00000    1.000000    
     54 C1    c    0.013643 * -0.042143 *  0.118929 *   0.00000    1.000000    
     55 C1    c    0.114286 * -0.051071 * -0.021214 *   0.00000    1.000000    
     56 C1    c    0.122500 * -0.025964 *  0.021214 *   0.00000    1.000000    
     57 C1    c    0.070000 * -0.051071 * -0.092857 *   0.00000    1.000000    
     58 C1    c    0.035714 * -0.025964 * -0.118929 *   0.00000    1.000000    
     59 C1    c    0.086786 *  0.000000 *  0.092857 *   0.00000    1.000000    
     60 C1    c    0.044286 *  0.000000 *  0.118929 *   0.00000    1.000000    
     61 C1    c    0.333571 *  0.342857 * -0.021214 *   0.00000    1.000000    
     62 C1    c    0.312500 *  0.358214 *  0.021214 *   0.00000    1.000000    
     63 C1    c    0.306429 *  0.342857 * -0.065357 *   0.00000    1.000000    
     64 C1    c    0.259000 *  0.358214 * -0.065357 *   0.00000    1.000000    
     65 C1    c    0.355714 *  0.274929 * -0.065357 *   0.00000    1.000000    
     66 C1    c    0.355714 *  0.225071 * -0.065357 *   0.00000    1.000000    
     67 C1    c    0.364286 *  0.301071 * -0.021214 *   0.00000    1.000000    
     68 C1    c    0.372500 *  0.275964 *  0.021214 *   0.00000    1.000000    
     69 C1    c    0.320000 *  0.301071 * -0.092857 *   0.00000    1.000000    
     70 C1    c    0.285714 *  0.275964 * -0.118929 *   0.00000    1.000000    
     71 C1    c    0.263107 *  0.374286 *  0.021214 *   0.00000    1.000000    
     72 C1    c    0.236893 *  0.374286 * -0.021214 *   0.00000    1.000000    
     73 C1    c    0.241000 *  0.358214 *  0.065357 *   0.00000    1.000000    
     74 C1    c    0.193571 *  0.342857 *  0.065357 *   0.00000    1.000000    
     75 C1    c    0.321071 *  0.332500 *  0.065357 *   0.00000    1.000000    
     76 C1    c    0.350357 *  0.292143 *  0.065357 *   0.00000    1.000000    
     77 C1    c    0.276786 *  0.332500 *  0.092857 *   0.00000    1.000000    
     78 C1    c    0.263643 *  0.292143 *  0.118929 *   0.00000    1.000000    
     79 C1    c    0.187500 *  0.358214 * -0.021214 *   0.00000    1.000000    
     80 C1    c    0.166429 *  0.342857 *  0.021214 *   0.00000    1.000000    
     81 C1    c    0.178929 *  0.332500 * -0.065357 *   0.00000    1.000000    
     82 C1    c    0.149643 *  0.292143 * -0.065357 *   0.00000    1.000000    
     83 C1    c    0.223214 *  0.332500 * -0.092857 *   0.00000    1.000000    
     84 C1    c    0.236357 *  0.292143 * -0.118929 *   0.00000    1.000000    
     85 C1    c    0.135714 *  0.301071 *  0.021214 *   0.00000    1.000000    
     86 C1    c    0.127500 *  0.275964 * -0.021214 *   0.00000    1.000000    
     87 C1    c    0.144286 *  0.274929 *  0.065357 *   0.00000    1.000000    
     88 C1    c    0.144286 *  0.225071 *  0.065357 *   0.00000    1.000000    
     89 C1    c    0.180000 *  0.301071 *  0.092857 *   0.00000    1.000000    
     90 C1    c    0.214286 *  0.275964 *  0.118929 *   0.00000    1.000000    
     91 C1    c    0.127500 *  0.224036 * -0.021214 *   0.00000    1.000000    
     92 C1    c    0.135714 *  0.198929 *  0.021214 *   0.00000    1.000000    
     93 C1    c    0.149643 *  0.207857 * -0.065357 *   0.00000    1.000000    
     94 C1    c    0.178929 *  0.167500 * -0.065357 *   0.00000    1.000000    
     95 C1    c    0.163214 *  0.250000 * -0.092857 *   0.00000    1.000000    
     96 C1    c    0.205714 *  0.250000 * -0.118929 *   0.00000    1.000000    
     97 C1    c    0.166429 *  0.157143 *  0.021214 *   0.00000    1.000000    
     98 C1    c    0.187500 *  0.141786 * -0.021214 *   0.00000    1.000000    
     99 C1    c    0.193571 *  0.157143 *  0.065357 *   0.00000    1.000000    
    100 C1    c    0.241000 *  0.141786 *  0.065357 *   0.00000    1.000000    
    101 C1    c    0.180000 *  0.198929 *  0.092857 *   0.00000    1.000000    
    102 C1    c    0.214286 *  0.224036 *  0.118929 *   0.00000    1.000000    
    103 C1    c    0.236893 *  0.125714 * -0.021214 *   0.00000    1.000000    
    104 C1    c    0.263107 *  0.125714 *  0.021214 *   0.00000    1.000000    
    105 C1    c    0.259000 *  0.141786 * -0.065357 *   0.00000    1.000000    
    106 C1    c    0.306429 *  0.157143 * -0.065357 *   0.00000    1.000000    
    107 C1    c    0.223214 *  0.167500 * -0.092857 *   0.00000    1.000000    
    108 C1    c    0.236357 *  0.207857 * -0.118929 *   0.00000    1.000000    
    109 C1    c    0.312500 *  0.141786 *  0.021214 *   0.00000    1.000000    
    110 C1    c    0.333571 *  0.157143 * -0.021214 *   0.00000    1.000000    
    111 C1    c    0.321071 *  0.167500 *  0.065357 *   0.00000    1.000000    
    112 C1    c    0.350357 *  0.207857 *  0.065357 *   0.00000    1.000000    
    113 C1    c    0.276786 *  0.167500 *  0.092857 *   0.00000    1.000000    
    114 C1    c    0.263643 *  0.207857 *  0.118929 *   0.00000    1.000000    
    115 C1    c    0.364286 *  0.198929 * -0.021214 *   0.00000    1.000000    
    116 C1    c    0.372500 *  0.224036 *  0.021214 *   0.00000    1.000000    
    117 C1    c    0.320000 *  0.198929 * -0.092857 *   0.00000    1.000000    
    118 C1    c    0.285714 *  0.224036 * -0.118929 *   0.00000    1.000000    
    119 C1    c    0.336786 *  0.250000 *  0.092857 *   0.00000    1.000000    
    120 C1    c    0.294286 *  0.250000 *  0.118929 *   0.00000    1.000000    
    121 C1    c    0.333571 *  0.092857 *  0.228786 *   0.00000    1.000000    
    122 C1    c    0.312500 *  0.108214 *  0.271214 *   0.00000    1.000000    
    123 C1    c    0.306429 *  0.092857 *  0.184643 *   0.00000    1.000000    
    124 C1    c    0.259000 *  0.108214 *  0.184643 *   0.00000    1.000000    
    125 C1    c    0.355714 *  0.024929 *  0.184643 *   0.00000    1.000000    
    126 C1    c    0.355714 * -0.024929 *  0.184643 *   0.00000    1.000000    
    127 C1    c    0.364286 *  0.051071 *  0.228786 *   0.00000    1.000000    
    128 C1    c    0.372500 *  0.025964 *  0.271214 *   0.00000    1.000000    
    129 C1    c    0.320000 *  0.051071 *  0.157143 *   0.00000    1.000000    
    130 C1    c    0.285714 *  0.025964 *  0.131071 *   0.00000    1.000000    
    131 C1    c    0.263107 *  0.124286 *  0.271214 *   0.00000    1.000000    
    132 C1    c    0.236893 *  0.124286 *  0.228786 *   0.00000    1.000000    
    133 C1    c    0.241000 *  0.108214 *  0.315357 *   0.00000    1.000000    
    134 C1    c    0.193571 *  0.092857 *  0.315357 *   0.00000    1.000000    
    135 C1    c    0.321071 *  0.082500 *  0.315357 *   0.00000    1.000000    
    136 C1    c    0.350357 *  0.042143 *  0.315357 *   0.00000    1.000000    
    137 C1    c    0.276786 *  0.082500 *  0.342857 *   0.00000    1.000000    
    138 C1    c    0.263643 *  0.042143 *  0.368929 *   0.00000    1.000000    
    139 C1    c    0.187500 *  0.108214 *  0.228786 *   0.00000    1.000000    
    140 C1    c    0.166429 *  0.092857 *  0.271214 *   0.00000    1.000000    
    141 C1    c    0.178929 *  0.082500 *  0.184643 *   0.00000    1.000000    
    142 C1    c    0.149643 *  0.042143 *  0.184643 *   0.00000    1.000000    
    143 C1    c    0.223214 *  0.082500 *  0.157143 *   0.00000    1.000000    
    144 C1    c    0.236357 *  0.042143 *  0.131071 *   0.00000    1.000000    
    145 C1    c    0.135714 *  0.051071 *  0.271214 *   0.00000    1.000000    
    146 C1    c    0.127500 *  0.025964 *  0.228786 *   0.00000    1.000000    
    147 C1    c    0.144286 *  0.024929 *  0.315357 *   0.00000    1.000000    
    148 C1    c    0.144286 * -0.024929 *  0.315357 *   0.00000    1.000000    
    149 C1    c    0.180000 *  0.051071 *  0.342857 *   0.00000    1.000000    
    150 C1    c    0.214286 *  0.025964 *  0.368929 *   0.00000    1.000000    
    151 C1    c    0.127500 * -0.025964 *  0.228786 *   0.00000    1.000000    
    152 C1    c    0.135714 * -0.051071 *  0.271214 *   0.00000    1.000000    
    153 C1    c    0.149643 * -0.042143 *  0.184643 *   0.00000    1.000000    
    154 C1    c    0.178929 * -0.082500 *  0.184643 *   0.00000    1.000000    
    155 C1    c    0.163214 *  0.000000 *  0.157143 *   0.00000    1.000000    
    156 C1    c    0.205714 *  0.000000 *  0.131071 *   0.00000    1.000000    
    157 C1    c    0.166429 * -0.092857 *  0.271214 *   0.00000    1.000000    
    158 C1    c    0.187500 * -0.108214 *  0.228786 *   0.00000    1.000000    
    159 C1    c    0.193571 * -0.092857 *  0.315357 *   0.00000    1.000000    
    160 C1    c    0.241000 * -0.108214 *  0.315357 *   0.00000    1.000000    
    161 C1    c    0.180000 * -0.051071 *  0.342857 *   0.00000    1.000000    
    162 C1    c    0.214286 * -0.025964 *  0.368929 *   0.00000    1.000000    
    163 C1    c    0.236893 * -0.124286 *  0.228786 *   0.00000    1.000000    
    164 C1    c    0.263107 * -0.124286 *  0.271214 *   0.00000    1.000000    
    165 C1    c    0.259000 * -0.108214 *  0.184643 *   0.00000    1.000000    
    166 C1    c    0.306429 * -0.092857 *  0.184643 *   0.00000    1.000000    
    167 C1    c    0.223214 * -0.082500 *  0.157143 *   0.00000    1.000000    
    168 C1    c    0.236357 * -0.042143 *  0.131071 *   0.00000    1.000000    
    169 C1    c    0.312500 * -0.108214 *  0.271214 *   0.00000    1.000000    
    170 C1    c    0.333571 * -0.092857 *  0.228786 *   0.00000    1.000000    
    171 C1    c    0.321071 * -0.082500 *  0.315357 *   0.00000    1.000000    
    172 C1    c    0.350357 * -0.042143 *  0.315357 *   0.00000    1.000000    
    173 C1    c    0.276786 * -0.082500 *  0.342857 *   0.00000    1.000000    
    174 C1    c    0.263643 * -0.042143 *  0.368929 *   0.00000    1.000000    
    175 C1    c    0.364286 * -0.051071 *  0.228786 *   0.00000    1.000000    
    176 C1    c    0.372500 * -0.025964 *  0.271214 *   0.00000    1.000000    
    177 C1    c    0.320000 * -0.051071 *  0.157143 *   0.00000    1.000000    
    178 C1    c    0.285714 * -0.025964 *  0.131071 *   0.00000    1.000000    
    179 C1    c    0.336786 *  0.000000 *  0.342857 *   0.00000    1.000000    
    180 C1    c    0.294286 *  0.000000 *  0.368929 *   0.00000    1.000000    
    181 C1    c    0.083571 *  0.342857 *  0.228786 *   0.00000    1.000000    
    182 C1    c    0.062500 *  0.358214 *  0.271214 *   0.00000    1.000000    
    183 C1    c    0.056429 *  0.342857 *  0.184643 *   0.00000    1.000000    
    184 C1    c    0.009000 *  0.358214 *  0.184643 *   0.00000    1.000000    
    185 C1    c    0.105714 *  0.274929 *  0.184643 *   0.00000    1.000000    
    186 C1    c    0.105714 *  0.225071 *  0.184643 *   0.00000    1.000000    
    187 C1    c    0.114286 *  0.301071 *  0.228786 *   0.00000    1.000000    
    188 C1    c    0.122500 *  0.275964 *  0.271214 *   0.00000    1.000000    
    189 C1    c    0.070000 *  0.301071 *  0.157143 *   0.00000    1.000000    
    190 C1    c    0.035714 *  0.275964 *  0.131071 *   0.00000    1.000000    
    191 C1    c    0.013107 *  0.374286 *  0.271214 *   0.00000    1.000000    
    192 C1    c   -0.013107 *  0.374286 *  0.228786 *   0.00000    1.000000    
    193 C1    c   -0.009000 *  0.358214 *  0.315357 *   0.00000    1.000000    
    194 C1    c   -0.056429 *  0.342857 *  0.315357 *   0.00000    1.000000    
    195 C1    c    0.071071 *  0.332500 *  0.315357 *   0.00000    1.000000    
    196 C1    c    0.100357 *  0.292143 *  0.315357 *   0.00000    1.000000    
    197 C1    c    0.026786 *  0.332500 *  0.342857 *   0.00000    1.000000    
    198 C1    c    0.013643 *  0.292143 *  0.368929 *   0.00000    1.000000    
    199 C1    c   -0.062500 *  0.358214 *  0.228786 *   0.00000    1.000000    
    200 C1    c   -0.083571 *  0.342857 *  0.271214 *   0.00000    1.000000    
    201 C1    c   -0.071071 *  0.332500 *  0.184643 *   0.00000    1.000000    
    202 C1    c   -0.100357 *  0.292143 *  0.184643 *   0.00000    1.000000    
    203 C1    c   -0.026786 *  0.332500 *  0.157143 *   0.00000    1.000000    
    204 C1    c   -0.013643 *  0.292143 *  0.131071 *   0.00000    1.000000    
    205 C1    c   -0.114286 *  0.301071 *  0.271214 *   0.00000    1.000000    
    206 C1    c   -0.122500 *  0.275964 *  0.228786 *   0.00000    1.000000    
    207 C1    c   -0.105714 *  0.274929 *  0.315357 *   0.00000    1.000000    
    208 C1    c   -0.105714 *  0.225071 *  0.315357 *   0.00000    1.000000    
    209 C1    c   -0.070000 *  0.301071 *  0.342857 *   0.00000    1.000000    
    210 C1    c   -0.035714 *  0.275964 *  0.368929 *   0.00000    1.000000    
    211 C1    c   -0.122500 *  0.224036 *  0.228786 *   0.00000    1.000000    
    212 C1    c   -0.114286 *  0.198929 *  0.271214 *   0.00000    1.000000    
    213 C1    c   -0.100357 *  0.207857 *  0.184643 *   0.00000    1.000000    
    214 C1    c   -0.071071 *  0.167500 *  0.184643 *   0.00000    1.000000    
    215 C1    c   -0.086786 *  0.250000 *  0.157143 *   0.00000    1.000000    
    216 C1    c   -0.044286 *  0.250000 *  0.131071 *   0.00000    1.000000    
    217 C1    c   -0.083571 *  0.157143 *  0.271214 *   0.00000    1.000000    
    218 C1    c   -0.062500 *  0.141786 *  0.228786 *   0.00000    1.000000    
    219 C1    c   -0.056429 *  0.157143 *  0.315357 *   0.00000    1.000000    
    220 C1    c   -0.009000 *  0.141786 *  0.315357 *   0.00000    1.000000    
    221 C1    c   -0.070000 *  0.198929 *  0.342857 *   0.00000    1.000000    
    222 C1    c   -0.035714 *  0.224036 *  0.368929 *   0.00000    1.000000    
    223 C1    c   -0.013107 *  0.125714 *  0.228786 *   0.00000    1.000000    
    224 C1    c    0.013107 *  0.125714 *  0.271214 *   0.00000    1.000000    
    225 C1    c    0.009000 *  0.141786 *  0.184643 *   0.00000    1.000000    
    226 C1    c    0.056429 *  0.157143 *  0.184643 *   0.00000    1.000000    
    227 C1    c   -0.026786 *  0.167500 *  0.157143 *   0.00000    1.000000    
    228 C1    c   -0.013643 *  0.207857 *  0.131071 *   0.00000    1.000000    
    229 C1    c    0.062500 *  0.141786 *  0.271214 *   0.00000    1.000000    
    230 C1    c    0.083571 *  0.157143 *  0.228786 *   0.00000    1.000000    
    231 C1    c    0.071071 *  0.167500 *  0.315357 *   0.00000    1.000000    
    232 C1    c    0.100357 *  0.207857 *  0.315357 *   0.00000    1.000000    
    233 C1    c    0.026786 *  0.167500 *  0.342857 *   0.00000    1.000000    
    234 C1    c    0.013643 *  0.207857 *  0.368929 *   0.00000    1.000000    
    235 C1    c    0.114286 *  0.198929 *  0.228786 *   0.00000    1.000000    
    236 C1    c    0.122500 *  0.224036 *  0.271214 *   0.00000    1.000000    
    237 C1    c    0.070000 *  0.198929 *  0.157143 *   0.00000    1.000000    
    238 C1    c    0.035714 *  0.224036 *  0.131071 *   0.00000    1.000000    
    239 C1    c    0.086786 *  0.250000 *  0.342857 *   0.00000    1.000000    
    240 C1    c    0.044286 *  0.250000 *  0.368929 *   0.00000    1.000000    
    241 C1    c    0.583571 *  0.092857 * -0.021214 *   0.00000    1.000000    
    242 C1    c    0.562500 *  0.108214 *  0.021214 *   0.00000    1.000000    
    243 C1    c    0.556429 *  0.092857 * -0.065357 *   0.00000    1.000000    
    244 C1    c    0.509000 *  0.108214 * -0.065357 *   0.00000    1.000000    
    245 C1    c    0.605714 *  0.024929 * -0.065357 *   0.00000    1.000000    
    246 C1    c    0.605714 * -0.024929 * -0.065357 *   0.00000    1.000000    
    247 C1    c    0.614286 *  0.051071 * -0.021214 *   0.00000    1.000000    
    248 C1    c    0.622500 *  0.025964 *  0.021214 *   0.00000    1.000000    
    249 C1    c    0.570000 *  0.051071 * -0.092857 *   0.00000    1.000000    
    250 C1    c    0.535714 *  0.025964 * -0.118929 *   0.00000    1.000000    
    251 C1    c    0.513107 *  0.124286 *  0.021214 *   0.00000    1.000000    
    252 C1    c    0.486893 *  0.124286 * -0.021214 *   0.00000    1.000000    
    253 C1    c    0.491000 *  0.108214 *  0.065357 *   0.00000    1.000000    
    254 C1    c    0.443571 *  0.092857 *  0.065357 *   0.00000    1.000000    
    255 C1    c    0.571071 *  0.082500 *  0.065357 *   0.00000    1.000000    
    256 C1    c    0.600357 *  0.042143 *  0.065357 *   0.00000    1.000000    
    257 C1    c    0.526786 *  0.082500 *  0.092857 *   0.00000    1.000000    
    258 C1    c    0.513643 *  0.042143 *  0.118929 *   0.00000    1.000000    
    259 C1    c    0.437500 *  0.108214 * -0.021214 *   0.00000    1.000000    
    260 C1    c    0.416429 *  0.092857 *  0.021214 *   0.00000    1.000000    
    261 C1    c    0.428929 *  0.082500 * -0.065357 *   0.00000    1.000000    
    262 C1    c    0.399643 *  0.042143 * -0.065357 *   0.00000    1.000000    
    263 C1    c    0.473214 *  0.082500 * -0.092857 *   0.00000    1.000000    
    264 C1    c    0.486357 *  0.042143 * -0.118929 *   0.00000    1.000000    
    265 C1    c    0.385714 *  0.051071 *  0.021214 *   0.00000    1.000000    
    266 C1    c    0.377500 *  0.025964 * -0.021214 *   0.00000    1.000000    
    267 C1    c    0.394286 *  0.024929 *  0.065357 *   0.00000    1.000000    
    268 C1    c    0.394286 * -0.024929 *  0.065357 *   0.00000    1.000000    
    269 C1    c    0.430000 *  0.051071 *  0.092857 *   0.00000    1.000000    
    270 C1    c    0.464286 *  0.025964 *  0.118929 *   0.00000    1.000000    
    271 C1    c    0.377500 * -0.025964 * -0.021214 *   0.00000    1.000000    
    272 C1    c    0.385714 * -0.051071 *  0.021214 *   0.00000    1.000000    
    273 C1    c    0.399643 * -0.042143 * -0.065357 *   0.00000    1.000000    
    274 C1    c    0.428929 * -0.082500 * -0.065357 *   0.00000    1.000000    
    275 C1    c    0.413214 *  0.000000 * -0.092857 *   0.00000    1.000000    
    276 C1    c    0.455714 *  0.000000 * -0.118929 *   0.00000    1.000000    
    277 C1    c    0.416429 * -0.092857 *  0.021214 *   0.00000    1.000000    
    278 C1    c    0.437500 * -0.108214 * -0.021214 *   0.00000    1.000000    
    279 C1    c    0.443571 * -0.092857 *  0.065357 *   0.00000    1.000000    
    280 C1    c    0.491000 * -0.108214 *  0.065357 *   0.00000    1.000000    
    281 C1    c    0.430000 * -0.051071 *  0.092857 *   0.00000    1.000000    
    282 C1    c    0.464286 * -0.025964 *  0.118929 *   0.00000    1.000000    
    283 C1    c    0.486893 * -0.124286 * -0.021214 *   0.00000    1.000000    
    284 C1    c    0.513107 * -0.124286 *  0.021214 *   0.00000    1.000000    
    285 C1    c    0.509000 * -0.108214 * -0.065357 *   0.00000    1.000000    
    286 C1    c    0.556429 * -0.092857 * -0.065357 *   0.00000    1.000000    
    287 C1    c    0.473214 * -0.082500 * -0.092857 *   0.00000    1.000000    
    288 C1    c    0.486357 * -0.042143 * -0.118929 *   0.00000    1.000000    
    289 C1    c    0.562500 * -0.108214 *  0.021214 *   0.00000    1.000000    
    290 C1    c    0.583571 * -0.092857 * -0.021214 *   0.00000    1.000000    
    291 C1    c    0.571071 * -0.082500 *  0.065357 *   0.00000    1.000000    
    292 C1    c    0.600357 * -0.042143 *  0.065357 *   0.00000    1.000000    
    293 C1    c    0.526786 * -0.082500 *  0.092857 *   0.00000    1.000000    
    294 C1    c    0.513643 * -0.042143 *  0.118929 *   0.00000    1.000000    
    295 C1    c    0.614286 * -0.051071 * -0.021214 *   0.00000    1.000000    
    296 C1    c    0.622500 * -0.025964 *  0.021214 *   0.00000    1.000000    
    297 C1    c    0.570000 * -0.051071 * -0.092857 *   0.00000    1.000000    
    298 C1    c    0.535714 * -0.025964 * -0.118929 *   0.00000    1.000000    
    299 C1    c    0.586786 *  0.000000 *  0.092857 *   0.00000    1.000000    
    300 C1    c    0.544286 *  0.000000 *  0.118929 *   0.00000    1.000000    
    301 C1    c    0.833571 *  0.342857 * -0.021214 *   0.00000    1.000000    
    302 C1    c    0.812500 *  0.358214 *  0.021214 *   0.00000    1.000000    
    303 C1    c    0.806429 *  0.342857 * -0.065357 *   0.00000    1.000000    
    304 C1    c    0.759000 *  0.358214 * -0.065357 *   0.00000    1.000000    
    305 C1    c    0.855714 *  0.274929 * -0.065357 *   0.00000    1.000000    
    306 C1    c    0.855714 *  0.225071 * -0.065357 *   0.00000    1.000000    
    307 C1    c    0.864286 *  0.301071 * -0.021214 *   0.00000    1.000000    
    308 C1    c    0.872500 *  0.275964 *  0.021214 *   0.00000    1.000000    
    309 C1    c    0.820000 *  0.301071 * -0.092857 *   0.00000    1.000000    
    310 C1    c    0.785714 *  0.275964 * -0.118929 *   0.00000    1.000000    
    311 C1    c    0.763107 *  0.374286 *  0.021214 *   0.00000    1.000000    
    312 C1    c    0.736893 *  0.374286 * -0.021214 *   0.00000    1.000000    
    313 C1    c    0.741000 *  0.358214 *  0.065357 *   0.00000    1.000000    
    314 C1    c    0.693571 *  0.342857 *  0.065357 *   0.00000    1.000000    
    315 C1    c    0.821071 *  0.332500 *  0.065357 *   0.00000    1.000000    
    316 C1    c    0.850357 *  0.292143 *  0.065357 *   0.00000    1.000000    
    317 C1    c    0.776786 *  0.332500 *  0.092857 *   0.00000    1.000000    
    318 C1    c    0.763643 *  0.292143 *  0.118929 *   0.00000    1.000000    
    319 C1    c    0.687500 *  0.358214 * -0.021214 *   0.00000    1.000000    
    320 C1    c    0.666429 *  0.342857 *  0.021214 *   0.00000    1.000000    
    321 C1    c    0.678929 *  0.332500 * -0.065357 *   0.00000    1.000000    
    322 C1    c    0.649643 *  0.292143 * -0.065357 *   0.00000    1.000000    
    323 C1    c    0.723214 *  0.332500 * -0.092857 *   0.00000    1.000000    
    324 C1    c    0.736357 *  0.292143 * -0.118929 *   0.00000    1.000000    
    325 C1    c    0.635714 *  0.301071 *  0.021214 *   0.00000    1.000000    
    326 C1    c    0.627500 *  0.275964 * -0.021214 *   0.00000    1.000000    
    327 C1    c    0.644286 *  0.274929 *  0.065357 *   0.00000    1.000000    
    328 C1    c    0.644286 *  0.225071 *  0.065357 *   0.00000    1.000000    
    329 C1    c    0.680000 *  0.301071 *  0.092857 *   0.00000    1.000000    
    330 C1    c    0.714286 *  0.275964 *  0.118929 *   0.00000    1.000000    
    331 C1    c    0.627500 *  0.224036 * -0.021214 *   0.00000    1.000000    
    332 C1    c    0.635714 *  0.198929 *  0.021214 *   0.00000    1.000000    
    333 C1    c    0.649643 *  0.207857 * -0.065357 *   0.00000    1.000000    
    334 C1    c    0.678929 *  0.167500 * -0.065357 *   0.00000    1.000000    
    335 C1    c    0.663214 *  0.250000 * -0.092857 *   0.00000    1.000000    
    336 C1    c    0.705714 *  0.250000 * -0.118929 *   0.00000    1.000000    
    337 C1    c    0.666429 *  0.157143 *  0.021214 *   0.00000    1.000000    
    338 C1    c    0.687500 *  0.141786 * -0.021214 *   0.00000    1.000000    
    339 C1    c    0.693571 *  0.157143 *  0.065357 *   0.00000    1.000000    
    340 C1    c    0.741000 *  0.141786 *  0.065357 *   0.00000    1.000000    
    341 C1    c    0.680000 *  0.198929 *  0.092857 *   0.00000    1.000000    
    342 C1    c    0.714286 *  0.224036 *  0.118929 *   0.00000    1.000000    
    343 C1    c    0.736893 *  0.125714 * -0.021214 *   0.00000    1.000000    
    344 C1    c    0.763107 *  0.125714 *  0.021214 *   0.00000    1.000000    
    345 C1    c    0.759000 *  0.141786 * -0.065357 *   0.00000    1.000000    
    346 C1    c    0.806429 *  0.157143 * -0.065357 *   0.00000    1.000000    
    347 C1    c    0.723214 *  0.167500 * -0.092857 *   0.00000    1.000000    
    348 C1    c    0.736357 *  0.207857 * -0.118929 *   0.00000    1.000000    
    349 C1    c    0.812500 *  0.141786 *  0.021214 *   0.00000    1.000000    
    350 C1    c    0.833571 *  0.157143 * -0.021214 *   0.00000    1.000000    
    351 C1    c    0.821071 *  0.167500 *  0.065357 *   0.00000    1.000000    
    352 C1    c    0.850357 *  0.207857 *  0.065357 *   0.00000    1.000000    
    353 C1    c    0.776786 *  0.167500 *  0.092857 *   0.00000    1.000000    
    354 C1    c    0.763643 *  0.207857 *  0.118929 *   0.00000    1.000000    
    355 C1    c    0.864286 *  0.198929 * -0.021214 *   0.00000    1.000000    
    356 C1    c    0.872500 *  0.224036 *  0.021214 *   0.00000    1.000000    
    357 C1    c    0.820000 *  0.198929 * -0.092857 *   0.00000    1.000000    
    358 C1    c    0.785714 *  0.224036 * -0.118929 *   0.00000    1.000000    
    359 C1    c    0.836786 *  0.250000 *  0.092857 *   0.00000    1.000000    
    360 C1    c    0.794286 *  0.250000 *  0.118929 *   0.00000    1.000000    
    361 C1    c    0.833571 *  0.092857 *  0.228786 *   0.00000    1.000000    
    362 C1    c    0.812500 *  0.108214 *  0.271214 *   0.00000    1.000000    
    363 C1    c    0.806429 *  0.092857 *  0.184643 *   0.00000    1.000000    
    364 C1    c    0.759000 *  0.108214 *  0.184643 *   0.00000    1.000000    
    365 C1    c    0.855714 *  0.024929 *  0.184643 *   0.00000    1.000000    
    366 C1    c    0.855714 * -0.024929 *  0.184643 *   0.00000    1.000000    
    367 C1    c    0.864286 *  0.051071 *  0.228786 *   0.00000    1.000000    
    368 C1    c    0.872500 *  0.025964 *  0.271214 *   0.00000    1.000000    
    369 C1    c    0.820000 *  0.051071 *  0.157143 *   0.00000    1.000000    
    370 C1    c    0.785714 *  0.025964 *  0.131071 *   0.00000    1.000000    
    371 C1    c    0.763107 *  0.124286 *  0.271214 *   0.00000    1.000000    
    372 C1    c    0.736893 *  0.124286 *  0.228786 *   0.00000    1.000000    
    373 C1    c    0.741000 *  0.108214 *  0.315357 *   0.00000    1.000000    
    374 C1    c    0.693571 *  0.092857 *  0.315357 *   0.00000    1.000000    
    375 C1    c    0.821071 *  0.082500 *  0.315357 *   0.00000    1.000000    
    376 C1    c    0.850357 *  0.042143 *  0.315357 *   0.00000    1.000000    
    377 C1    c    0.776786 *  0.082500 *  0.342857 *   0.00000    1.000000    
    378 C1    c    0.763643 *  0.042143 *  0.368929 *   0.00000    1.000000    
    379 C1    c    0.687500 *  0.108214 *  0.228786 *   0.00000    1.000000    
    380 C1    c    0.666429 *  0.092857 *  0.271214 *   0.00000    1.000000    
    381 C1    c    0.678929 *  0.082500 *  0.184643 *   0.00000    1.000000    
    382 C1    c    0.649643 *  0.042143 *  0.184643 *   0.00000    1.000000    
    383 C1    c    0.723214 *  0.082500 *  0.157143 *   0.00000    1.000000    
    384 C1    c    0.736357 *  0.042143 *  0.131071 *   0.00000    1.000000    
    385 C1    c    0.635714 *  0.051071 *  0.271214 *   0.00000    1.000000    
    386 C1    c    0.627500 *  0.025964 *  0.228786 *   0.00000    1.000000    
    387 C1    c    0.644286 *  0.024929 *  0.315357 *   0.00000    1.000000    
    388 C1    c    0.644286 * -0.024929 *  0.315357 *   0.00000    1.000000    
    389 C1    c    0.680000 *  0.051071 *  0.342857 *   0.00000    1.000000    
    390 C1    c    0.714286 *  0.025964 *  0.368929 *   0.00000    1.000000    
    391 C1    c    0.627500 * -0.025964 *  0.228786 *   0.00000    1.000000    
    392 C1    c    0.635714 * -0.051071 *  0.271214 *   0.00000    1.000000    
    393 C1    c    0.649643 * -0.042143 *  0.184643 *   0.00000    1.000000    
    394 C1    c    0.678929 * -0.082500 *  0.184643 *   0.00000    1.000000    
    395 C1    c    0.663214 *  0.000000 *  0.157143 *   0.00000    1.000000    
    396 C1    c    0.705714 *  0.000000 *  0.131071 *   0.00000    1.000000    
    397 C1    c    0.666429 * -0.092857 *  0.271214 *   0.00000    1.000000    
    398 C1    c    0.687500 * -0.108214 *  0.228786 *   0.00000    1.000000    
    399 C1    c    0.693571 * -0.092857 *  0.315357 *   0.00000    1.000000    
    400 C1    c    0.741000 * -0.108214 *  0.315357 *   0.00000    1.000000    
    401 C1    c    0.680000 * -0.051071 *  0.342857 *   0.00000    1.000000    
    402 C1    c    0.714286 * -0.025964 *  0.368929 *   0.00000    1.000000    
    403 C1    c    0.736893 * -0.124286 *  0.228786 *   0.00000    1.000000    
    404 C1    c    0.763107 * -0.124286 *  0.271214 *   0.00000    1.000000    
    405 C1    c    0.759000 * -0.108214 *  0.184643 *   0.00000    1.000000    
    406 C1    c    0.806429 * -0.092857 *  0.184643 *   0.00000    1.000000    
    407 C1    c    0.723214 * -0.082500 *  0.157143 *   0.00000    1.000000    
    408 C1    c    0.736357 * -0.042143 *  0.131071 *   0.00000    1.000000    
    409 C1    c    0.812500 * -0.108214 *  0.271214 *   0.00000    1.000000    
    410 C1    c    0.833571 * -0.092857 *  0.228786 *   0.00000    1.000000    
    411 C1    c    0.821071 * -0.082500 *  0.315357 *   0.00000    1.000000    
    412 C1    c    0.850357 * -0.042143 *  0.315357 *   0.00000    1.000000    
    413 C1    c    0.776786 * -0.082500 *  0.342857 *   0.00000    1.000000    
    414 C1    c    0.763643 * -0.042143 *  0.368929 *   0.00000    1.000000    
    415 C1    c    0.864286 * -0.051071 *  0.228786 *   0.00000    1.000000    
    416 C1    c    0.872500 * -0.025964 *  0.271214 *   0.00000    1.000000    
    417 C1    c    0.820000 * -0.051071 *  0.157143 *   0.00000    1.000000    
    418 C1    c    0.785714 * -0.025964 *  0.131071 *   0.00000    1.000000    
    419 C1    c    0.836786 *  0.000000 *  0.342857 *   0.00000    1.000000    
    420 C1    c    0.794286 *  0.000000 *  0.368929 *   0.00000    1.000000    
    421 C1    c    0.583571 *  0.342857 *  0.228786 *   0.00000    1.000000    
    422 C1    c    0.562500 *  0.358214 *  0.271214 *   0.00000    1.000000    
    423 C1    c    0.556429 *  0.342857 *  0.184643 *   0.00000    1.000000    
    424 C1    c    0.509000 *  0.358214 *  0.184643 *   0.00000    1.000000    
    425 C1    c    0.605714 *  0.274929 *  0.184643 *   0.00000    1.000000    
    426 C1    c    0.605714 *  0.225071 *  0.184643 *   0.00000    1.000000    
    427 C1    c    0.614286 *  0.301071 *  0.228786 *   0.00000    1.000000    
    428 C1    c    0.622500 *  0.275964 *  0.271214 *   0.00000    1.000000    
    429 C1    c    0.570000 *  0.301071 *  0.157143 *   0.00000    1.000000    
    430 C1    c    0.535714 *  0.275964 *  0.131071 *   0.00000    1.000000    
    431 C1    c    0.513107 *  0.374286 *  0.271214 *   0.00000    1.000000    
    432 C1    c    0.486893 *  0.374286 *  0.228786 *   0.00000    1.000000    
    433 C1    c    0.491000 *  0.358214 *  0.315357 *   0.00000    1.000000    
    434 C1    c    0.443571 *  0.342857 *  0.315357 *   0.00000    1.000000    
    435 C1    c    0.571071 *  0.332500 *  0.315357 *   0.00000    1.000000    
    436 C1    c    0.600357 *  0.292143 *  0.315357 *   0.00000    1.000000    
    437 C1    c    0.526786 *  0.332500 *  0.342857 *   0.00000    1.000000    
    438 C1    c    0.513643 *  0.292143 *  0.368929 *   0.00000    1.000000    
    439 C1    c    0.437500 *  0.358214 *  0.228786 *   0.00000    1.000000    
    440 C1    c    0.416429 *  0.342857 *  0.271214 *   0.00000    1.000000    
    441 C1    c    0.428929 *  0.332500 *  0.184643 *   0.00000    1.000000    
    442 C1    c    0.399643 *  0.292143 *  0.184643 *   0.00000    1.000000    
    443 C1    c    0.473214 *  0.332500 *  0.157143 *   0.00000    1.000000    
    444 C1    c    0.486357 *  0.292143 *  0.131071 *   0.00000    1.000000    
    445 C1    c    0.385714 *  0.301071 *  0.271214 *   0.00000    1.000000    
    446 C1    c    0.377500 *  0.275964 *  0.228786 *   0.00000    1.000000    
    447 C1    c    0.394286 *  0.274929 *  0.315357 *   0.00000    1.000000    
    448 C1    c    0.394286 *  0.225071 *  0.315357 *   0.00000    1.000000    
    449 C1    c    0.430000 *  0.301071 *  0.342857 *   0.00000    1.000000    
    450 C1    c    0.464286 *  0.275964 *  0.368929 *   0.00000    1.000000    
    451 C1    c    0.377500 *  0.224036 *  0.228786 *   0.00000    1.000000    
    452 C1    c    0.385714 *  0.198929 *  0.271214 *   0.00000    1.000000    
    453 C1    c    0.399643 *  0.207857 *  0.184643 *   0.00000    1.000000    
    454 C1    c    0.428929 *  0.167500 *  0.184643 *   0.00000    1.000000    
    455 C1    c    0.413214 *  0.250000 *  0.157143 *   0.00000    1.000000    
    456 C1    c    0.455714 *  0.250000 *  0.131071 *   0.00000    1.000000    
    457 C1    c    0.416429 *  0.157143 *  0.271214 *   0.00000    1.000000    
    458 C1    c    0.437500 *  0.141786 *  0.228786 *   0.00000    1.000000    
    459 C1    c    0.443571 *  0.157143 *  0.315357 *   0.00000    1.000000    
    460 C1    c    0.491000 *  0.141786 *  0.315357 *   0.00000    1.000000    
    461 C1    c    0.430000 *  0.198929 *  0.342857 *   0.00000    1.000000    
    462 C1    c    0.464286 *  0.224036 *  0.368929 *   0.00000    1.000000    
    463 C1    c    0.486893 *  0.125714 *  0.228786 *   0.00000    1.000000    
    464 C1    c    0.513107 *  0.125714 *  0.271214 *   0.00000    1.000000    
    465 C1    c    0.509000 *  0.141786 *  0.184643 *   0.00000    1.000000    
    466 C1    c    0.556429 *  0.157143 *  0.184643 *   0.00000    1.000000    
    467 C1    c    0.473214 *  0.167500 *  0.157143 *   0.00000    1.000000    
    468 C1    c    0.486357 *  0.207857 *  0.131071 *   0.00000    1.000000    
    469 C1    c    0.562500 *  0.141786 *  0.271214 *   0.00000    1.000000    
    470 C1    c    0.583571 *  0.157143 *  0.228786 *   0.00000    1.000000    
    471 C1    c    0.571071 *  0.167500 *  0.315357 *   0.00000    1.000000    
    472 C1    c    0.600357 *  0.207857 *  0.315357 *   0.00000    1.000000    
    473 C1    c    0.526786 *  0.167500 *  0.342857 *   0.00000    1.000000    
    474 C1    c    0.513643 *  0.207857 *  0.368929 *   0.00000    1.000000    
    475 C1    c    0.614286 *  0.198929 *  0.228786 *   0.00000    1.000000    
    476 C1    c    0.622500 *  0.224036 *  0.271214 *   0.00000    1.000000    
    477 C1    c    0.570000 *  0.198929 *  0.157143 *   0.00000    1.000000    
    478 C1    c    0.535714 *  0.224036 *  0.131071 *   0.00000    1.000000    
    479 C1    c    0.586786 *  0.250000 *  0.342857 *   0.00000    1.000000    
    480 C1    c    0.544286 *  0.250000 *  0.368929 *   0.00000    1.000000    
    481 C1    c    0.083571 *  0.592857 * -0.021214 *   0.00000    1.000000    
    482 C1    c    0.062500 *  0.608214 *  0.021214 *   0.00000    1.000000    
    483 C1    c    0.056429 *  0.592857 * -0.065357 *   0.00000    1.000000    
    484 C1    c    0.009000 *  0.608214 * -0.065357 *   0.00000    1.000000    
    485 C1    c    0.105714 *  0.524929 * -0.065357 *   0.00000    1.000000    
    486 C1    c    0.105714 *  0.475071 * -0.065357 *   0.00000    1.000000    
    487 C1    c    0.114286 *  0.551071 * -0.021214 *   0.00000    1.000000    
    488 C1    c    0.122500 *  0.525964 *  0.021214 *   0.00000    1.000000    
    489 C1    c    0.070000 *  0.551071 * -0.092857 *   0.00000    1.000000    
    490 C1    c    0.035714 *  0.525964 * -0.118929 *   0.00000    1.000000    
    491 C1    c    0.013107 *  0.624286 *  0.021214 *   0.00000    1.000000    
    492 C1    c   -0.013107 *  0.624286 * -0.021214 *   0.00000    1.000000    
    493 C1    c   -0.009000 *  0.608214 *  0.065357 *   0.00000    1.000000    
    494 C1    c   -0.056429 *  0.592857 *  0.065357 *   0.00000    1.000000    
    495 C1    c    0.071071 *  0.582500 *  0.065357 *   0.00000    1.000000    
    496 C1    c    0.100357 *  0.542143 *  0.065357 *   0.00000    1.000000    
    497 C1    c    0.026786 *  0.582500 *  0.092857 *   0.00000    1.000000    
    498 C1    c    0.013643 *  0.542143 *  0.118929 *   0.00000    1.000000    
    499 C1    c   -0.062500 *  0.608214 * -0.021214 *   0.00000    1.000000    
    500 C1    c   -0.083571 *  0.592857 *  0.021214 *   0.00000    1.000000    
    501 C1    c   -0.071071 *  0.582500 * -0.065357 *   0.00000    1.000000    
    502 C1    c   -0.100357 *  0.542143 * -0.065357 *   0.00000    1.000000    
    503 C1    c   -0.026786 *  0.582500 * -0.092857 *   0.00000    1.000000    
    504 C1    c   -0.013643 *  0.542143 * -0.118929 *   0.00000    1.000000    
    505 C1    c   -0.114286 *  0.551071 *  0.021214 *   0.00000    1.000000    
    506 C1    c   -0.122500 *  0.525964 * -0.021214 *   0.00000    1.000000    
    507 C1    c   -0.105714 *  0.524929 *  0.065357 *   0.00000    1.000000    
    508 C1    c   -0.105714 *  0.475071 *  0.065357 *   0.00000    1.000000    
    509 C1    c   -0.070000 *  0.551071 *  0.092857 *   0.00000    1.000000    
    510 C1    c   -0.035714 *  0.525964 *  0.118929 *   0.00000    1.000000    
    511 C1    c   -0.122500 *  0.474036 * -0.021214 *   0.00000    1.000000    
    512 C1    c   -0.114286 *  0.448929 *  0.021214 *   0.00000    1.000000    
    513 C1    c   -0.100357 *  0.457857 * -0.065357 *   0.00000    1.000000    
    514 C1    c   -0.071071 *  0.417500 * -0.065357 *   0.00000    1.000000    
    515 C1    c   -0.086786 *  0.500000 * -0.092857 *   0.00000    1.000000    
    516 C1    c   -0.044286 *  0.500000 * -0.118929 *   0.00000    1.000000    
    517 C1    c   -0.083571 *  0.407143 *  0.021214 *   0.00000    1.000000    
    518 C1    c   -0.062500 *  0.391786 * -0.021214 *   0.00000    1.000000    
    519 C1    c   -0.056429 *  0.407143 *  0.065357 *   0.00000    1.000000    
    520 C1    c   -0.009000 *  0.391786 *  0.065357 *   0.00000    1.000000    
    521 C1    c   -0.070000 *  0.448929 *  0.092857 *   0.00000    1.000000    
    522 C1    c   -0.035714 *  0.474036 *  0.118929 *   0.00000    1.000000    
    523 C1    c   -0.013107 *  0.375714 * -0.021214 *   0.00000    1.000000    
    524 C1    c    0.013107 *  0.375714 *  0.021214 *   0.00000    1.000000    
    525 C1    c    0.009000 *  0.391786 * -0.065357 *   0.00000    1.000000    
    526 C1    c    0.056429 *  0.407143 * -0.065357 *   0.00000    1.000000    
    527 C1    c   -0.026786 *  0.417500 * -0.092857 *   0.00000    1.000000    
    528 C1    c   -0.013643 *  0.457857 * -0.118929 *   0.00000    1.000000    
    529 C1    c    0.062500 *  0.391786 *  0.021214 *   0.00000    1.000000    
    530 C1    c    0.083571 *  0.407143 * -0.021214 *   0.00000    1.000000    
    531 C1    c    0.071071 *  0.417500 *  0.065357 *   0.00000    1.000000    
    532 C1    c    0.100357 *  0.457857 *  0.065357 *   0.00000    1.000000    
    533 C1    c    0.026786 *  0.417500 *  0.092857 *   0.00000    1.000000    
    534 C1    c    0.013643 *  0.457857 *  0.118929 *   0.00000    1.000000    
    535 C1    c    0.114286 *  0.448929 * -0.021214 *   0.00000    1.000000    
    536 C1    c    0.122500 *  0.474036 *  0.021214 *   0.00000    1.000000    
    537 C1    c    0.070000 *  0.448929 * -0.092857 *   0.00000    1.000000    
    538 C1    c    0.035714 *  0.474036 * -0.118929 *   0.00000    1.000000    
    539 C1    c    0.086786 *  0.500000 *  0.092857 *   0.00000    1.000000    
    540 C1    c    0.044286 *  0.500000 *  0.118929 *   0.00000    1.000000    
    541 C1    c    0.333571 *  0.842857 * -0.021214 *   0.00000    1.000000    
    542 C1    c    0.312500 *  0.858214 *  0.021214 *   0.00000    1.000000    
    543 C1    c    0.306429 *  0.842857 * -0.065357 *   0.00000    1.000000    
    544 C1    c    0.259000 *  0.858214 * -0.065357 *   0.00000    1.000000    
    545 C1    c    0.355714 *  0.774929 * -0.065357 *   0.00000    1.000000    
    546 C1    c    0.355714 *  0.725071 * -0.065357 *   0.00000    1.000000    
    547 C1    c    0.364286 *  0.801071 * -0.021214 *   0.00000    1.000000    
    548 C1    c    0.372500 *  0.775964 *  0.021214 *   0.00000    1.000000    
    549 C1    c    0.320000 *  0.801071 * -0.092857 *   0.00000    1.000000    
    550 C1    c    0.285714 *  0.775964 * -0.118929 *   0.00000    1.000000    
    551 C1    c    0.263107 *  0.874286 *  0.021214 *   0.00000    1.000000    
    552 C1    c    0.236893 *  0.874286 * -0.021214 *   0.00000    1.000000    
    553 C1    c    0.241000 *  0.858214 *  0.065357 *   0.00000    1.000000    
    554 C1    c    0.193571 *  0.842857 *  0.065357 *   0.00000    1.000000    
    555 C1    c    0.321071 *  0.832500 *  0.065357 *   0.00000    1.000000    
    556 C1    c    0.350357 *  0.792143 *  0.065357 *   0.00000    1.000000    
    557 C1    c    0.276786 *  0.832500 *  0.092857 *   0.00000    1.000000    
    558 C1    c    0.263643 *  0.792143 *  0.118929 *   0.00000    1.000000    
    559 C1    c    0.187500 *  0.858214 * -0.021214 *   0.00000    1.000000    
    560 C1    c    0.166429 *  0.842857 *  0.021214 *   0.00000    1.000000    
    561 C1    c    0.178929 *  0.832500 * -0.065357 *   0.00000    1.000000    
    562 C1    c    0.149643 *  0.792143 * -0.065357 *   0.00000    1.000000    
    563 C1    c    0.223214 *  0.832500 * -0.092857 *   0.00000    1.000000    
    564 C1    c    0.236357 *  0.792143 * -0.118929 *   0.00000    1.000000    
    565 C1    c    0.135714 *  0.801071 *  0.021214 *   0.00000    1.000000    
    566 C1    c    0.127500 *  0.775964 * -0.021214 *   0.00000    1.000000    
    567 C1    c    0.144286 *  0.774929 *  0.065357 *   0.00000    1.000000    
    568 C1    c    0.144286 *  0.725071 *  0.065357 *   0.00000    1.000000    
    569 C1    c    0.180000 *  0.801071 *  0.092857 *   0.00000    1.000000    
    570 C1    c    0.214286 *  0.775964 *  0.118929 *   0.00000    1.000000    
    571 C1    c    0.127500 *  0.724036 * -0.021214 *   0.00000    1.000000    
    572 C1    c    0.135714 *  0.698929 *  0.021214 *   0.00000    1.000000    
    573 C1    c    0.149643 *  0.707857 * -0.065357 *   0.00000    1.000000    
    574 C1    c    0.178929 *  0.667500 * -0.065357 *   0.00000    1.000000    
    575 C1    c    0.163214 *  0.750000 * -0.092857 *   0.00000    1.000000    
    576 C1    c    0.205714 *  0.750000 * -0.118929 *   0.00000    1.000000    
    577 C1    c    0.166429 *  0.657143 *  0.021214 *   0.00000    1.000000    
    578 C1    c    0.187500 *  0.641786 * -0.021214 *   0.00000    1.000000    
    579 C1    c    0.193571 *  0.657143 *  0.065357 *   0.00000    1.000000    
    580 C1    c    0.241000 *  0.641786 *  0.065357 *   0.00000    1.000000    
    581 C1    c    0.180000 *  0.698929 *  0.092857 *   0.00000    1.000000    
    582 C1    c    0.214286 *  0.724036 *  0.118929 *   0.00000    1.000000    
    583 C1    c    0.236893 *  0.625714 * -0.021214 *   0.00000    1.000000    
    584 C1    c    0.263107 *  0.625714 *  0.021214 *   0.00000    1.000000    
    585 C1    c    0.259000 *  0.641786 * -0.065357 *   0.00000    1.000000    
    586 C1    c    0.306429 *  0.657143 * -0.065357 *   0.00000    1.000000    
    587 C1    c    0.223214 *  0.667500 * -0.092857 *   0.00000    1.000000    
    588 C1    c    0.236357 *  0.707857 * -0.118929 *   0.00000    1.000000    
    589 C1    c    0.312500 *  0.641786 *  0.021214 *   0.00000    1.000000    
    590 C1    c    0.333571 *  0.657143 * -0.021214 *   0.00000    1.000000    
    591 C1    c    0.321071 *  0.667500 *  0.065357 *   0.00000    1.000000    
    592 C1    c    0.350357 *  0.707857 *  0.065357 *   0.00000    1.000000    
    593 C1    c    0.276786 *  0.667500 *  0.092857 *   0.00000    1.000000    
    594 C1    c    0.263643 *  0.707857 *  0.118929 *   0.00000    1.000000    
    595 C1    c    0.364286 *  0.698929 * -0.021214 *   0.00000    1.000000    
    596 C1    c    0.372500 *  0.724036 *  0.021214 *   0.00000    1.000000    
    597 C1    c    0.320000 *  0.698929 * -0.092857 *   0.00000    1.000000    
    598 C1    c    0.285714 *  0.724036 * -0.118929 *   0.00000    1.000000    
    599 C1    c    0.336786 *  0.750000 *  0.092857 *   0.00000    1.000000    
    600 C1    c    0.294286 *  0.750000 *  0.118929 *   0.00000    1.000000    
    601 C1    c    0.333571 *  0.592857 *  0.228786 *   0.00000    1.000000    
    602 C1    c    0.312500 *  0.608214 *  0.271214 *   0.00000    1.000000    
    603 C1    c    0.306429 *  0.592857 *  0.184643 *   0.00000    1.000000    
    604 C1    c    0.259000 *  0.608214 *  0.184643 *   0.00000    1.000000    
    605 C1    c    0.355714 *  0.524929 *  0.184643 *   0.00000    1.000000    
    606 C1    c    0.355714 *  0.475071 *  0.184643 *   0.00000    1.000000    
    607 C1    c    0.364286 *  0.551071 *  0.228786 *   0.00000    1.000000    
    608 C1    c    0.372500 *  0.525964 *  0.271214 *   0.00000    1.000000    
    609 C1    c    0.320000 *  0.551071 *  0.157143 *   0.00000    1.000000    
    610 C1    c    0.285714 *  0.525964 *  0.131071 *   0.00000    1.000000    
    611 C1    c    0.263107 *  0.624286 *  0.271214 *   0.00000    1.000000    
    612 C1    c    0.236893 *  0.624286 *  0.228786 *   0.00000    1.000000    
    613 C1    c    0.241000 *  0.608214 *  0.315357 *   0.00000    1.000000    
    614 C1    c    0.193571 *  0.592857 *  0.315357 *   0.00000    1.000000    
    615 C1    c    0.321071 *  0.582500 *  0.315357 *   0.00000    1.000000    
    616 C1    c    0.350357 *  0.542143 *  0.315357 *   0.00000    1.000000    
    617 C1    c    0.276786 *  0.582500 *  0.342857 *   0.00000    1.000000    
    618 C1    c    0.263643 *  0.542143 *  0.368929 *   0.00000    1.000000    
    619 C1    c    0.187500 *  0.608214 *  0.228786 *   0.00000    1.000000    
    620 C1    c    0.166429 *  0.592857 *  0.271214 *   0.00000    1.000000    
    621 C1    c    0.178929 *  0.582500 *  0.184643 *   0.00000    1.000000    
    622 C1    c    0.149643 *  0.542143 *  0.184643 *   0.00000    1.000000    
    623 C1    c    0.223214 *  0.582500 *  0.157143 *   0.00000    1.000000    
    624 C1    c    0.236357 *  0.542143 *  0.131071 *   0.00000    1.000000    
    625 C1    c    0.135714 *  0.551071 *  0.271214 *   0.00000    1.000000    
    626 C1    c    0.127500 *  0.525964 *  0.228786 *   0.00000    1.000000    
    627 C1    c    0.144286 *  0.524929 *  0.315357 *   0.00000    1.000000    
    628 C1    c    0.144286 *  0.475071 *  0.315357 *   0.00000    1.000000    
    629 C1    c    0.180000 *  0.551071 *  0.342857 *   0.00000    1.000000    
    630 C1    c    0.214286 *  0.525964 *  0.368929 *   0.00000    1.000000    
    631 C1    c    0.127500 *  0.474036 *  0.228786 *   0.00000    1.000000    
    632 C1    c    0.135714 *  0.448929 *  0.271214 *   0.00000    1.000000    
    633 C1    c    0.149643 *  0.457857 *  0.184643 *   0.00000    1.000000    
    634 C1    c    0.178929 *  0.417500 *  0.184643 *   0.00000    1.000000    
    635 C1    c    0.163214 *  0.500000 *  0.157143 *   0.00000    1.000000    
    636 C1    c    0.205714 *  0.500000 *  0.131071 *   0.00000    1.000000    
    637 C1    c    0.166429 *  0.407143 *  0.271214 *   0.00000    1.000000    
    638 C1    c    0.187500 *  0.391786 *  0.228786 *   0.00000    1.000000    
    639 C1    c    0.193571 *  0.407143 *  0.315357 *   0.00000    1.000000    
    640 C1    c    0.241000 *  0.391786 *  0.315357 *   0.00000    1.000000    
    641 C1    c    0.180000 *  0.448929 *  0.342857 *   0.00000    1.000000    
    642 C1    c    0.214286 *  0.474036 *  0.368929 *   0.00000    1.000000    
    643 C1    c    0.236893 *  0.375714 *  0.228786 *   0.00000    1.000000    
    644 C1    c    0.263107 *  0.375714 *  0.271214 *   0.00000    1.000000    
    645 C1    c    0.259000 *  0.391786 *  0.184643 *   0.00000    1.000000    
    646 C1    c    0.306429 *  0.407143 *  0.184643 *   0.00000    1.000000    
    647 C1    c    0.223214 *  0.417500 *  0.157143 *   0.00000    1.000000    
    648 C1    c    0.236357 *  0.457857 *  0.131071 *   0.00000    1.000000    
    649 C1    c    0.312500 *  0.391786 *  0.271214 *   0.00000    1.000000    
    650 C1    c    0.333571 *  0.407143 *  0.228786 *   0.00000    1.000000    
    651 C1    c    0.321071 *  0.417500 *  0.315357 *   0.00000    1.000000    
    652 C1    c    0.350357 *  0.457857 *  0.315357 *   0.00000    1.000000    
    653 C1    c    0.276786 *  0.417500 *  0.342857 *   0.00000    1.000000    
    654 C1    c    0.263643 *  0.457857 *  0.368929 *   0.00000    1.000000    
    655 C1    c    0.364286 *  0.448929 *  0.228786 *   0.00000    1.000000    
    656 C1    c    0.372500 *  0.474036 *  0.271214 *   0.00000    1.000000    
    657 C1    c    0.320000 *  0.448929 *  0.157143 *   0.00000    1.000000    
    658 C1    c    0.285714 *  0.474036 *  0.131071 *   0.00000    1.000000    
    659 C1    c    0.336786 *  0.500000 *  0.342857 *   0.00000    1.000000    
    660 C1    c    0.294286 *  0.500000 *  0.368929 *   0.00000    1.000000    
    661 C1    c    0.083571 *  0.842857 *  0.228786 *   0.00000    1.000000    
    662 C1    c    0.062500 *  0.858214 *  0.271214 *   0.00000    1.000000    
    663 C1    c    0.056429 *  0.842857 *  0.184643 *   0.00000    1.000000    
    664 C1    c    0.009000 *  0.858214 *  0.184643 *   0.00000    1.000000    
    665 C1    c    0.105714 *  0.774929 *  0.184643 *   0.00000    1.000000    
    666 C1    c    0.105714 *  0.725071 *  0.184643 *   0.00000    1.000000    
    667 C1    c    0.114286 *  0.801071 *  0.228786 *   0.00000    1.000000    
    668 C1    c    0.122500 *  0.775964 *  0.271214 *   0.00000    1.000000    
    669 C1    c    0.070000 *  0.801071 *  0.157143 *   0.00000    1.000000    
    670 C1    c    0.035714 *  0.775964 *  0.131071 *   0.00000    1.000000    
    671 C1    c    0.013107 *  0.874286 *  0.271214 *   0.00000    1.000000    
    672 C1    c   -0.013107 *  0.874286 *  0.228786 *   0.00000    1.000000    
    673 C1    c   -0.009000 *  0.858214 *  0.315357 *   0.00000    1.000000    
    674 C1    c   -0.056429 *  0.842857 *  0.315357 *   0.00000    1.000000    
    675 C1    c    0.071071 *  0.832500 *  0.315357 *   0.00000    1.000000    
    676 C1    c    0.100357 *  0.792143 *  0.315357 *   0.00000    1.000000    
    677 C1    c    0.026786 *  0.832500 *  0.342857 *   0.00000    1.000000    
    678 C1    c    0.013643 *  0.792143 *  0.368929 *   0.00000    1.000000    
    679 C1    c   -0.062500 *  0.858214 *  0.228786 *   0.00000    1.000000    
    680 C1    c   -0.083571 *  0.842857 *  0.271214 *   0.00000    1.000000    
    681 C1    c   -0.071071 *  0.832500 *  0.184643 *   0.00000    1.000000    
    682 C1    c   -0.100357 *  0.792143 *  0.184643 *   0.00000    1.000000    
    683 C1    c   -0.026786 *  0.832500 *  0.157143 *   0.00000    1.000000    
    684 C1    c   -0.013643 *  0.792143 *  0.131071 *   0.00000    1.000000    
    685 C1    c   -0.114286 *  0.801071 *  0.271214 *   0.00000    1.000000    
    686 C1    c   -0.122500 *  0.775964 *  0.228786 *   0.00000    1.000000    
    687 C1    c   -0.105714 *  0.774929 *  0.315357 *   0.00000    1.000000    
    688 C1    c   -0.105714 *  0.725071 *  0.315357 *   0.00000    1.000000    
    689 C1    c   -0.070000 *  0.801071 *  0.342857 *   0.00000    1.000000    
    690 C1    c   -0.035714 *  0.775964 *  0.368929 *   0.00000    1.000000    
    691 C1    c   -0.122500 *  0.724036 *  0.228786 *   0.00000    1.000000    
    692 C1    c   -0.114286 *  0.698929 *  0.271214 *   0.00000    1.000000    
    693 C1    c   -0.100357 *  0.707857 *  0.184643 *   0.00000    1.000000    
    694 C1    c   -0.071071 *  0.667500 *  0.184643 *   0.00000    1.000000    
    695 C1    c   -0.086786 *  0.750000 *  0.157143 *   0.00000    1.000000    
    696 C1    c   -0.044286 *  0.750000 *  0.131071 *   0.00000    1.000000    
    697 C1    c   -0.083571 *  0.657143 *  0.271214 *   0.00000    1.000000    
    698 C1    c   -0.062500 *  0.641786 *  0.228786 *   0.00000    1.000000    
    699 C1    c   -0.056429 *  0.657143 *  0.315357 *   0.00000    1.000000    
    700 C1    c   -0.009000 *  0.641786 *  0.315357 *   0.00000    1.000000    
    701 C1    c   -0.070000 *  0.698929 *  0.342857 *   0.00000    1.000000    
    702 C1    c   -0.035714 *  0.724036 *  0.368929 *   0.00000    1.000000    
    703 C1    c   -0.013107 *  0.625714 *  0.228786 *   0.00000    1.000000    
    704 C1    c    0.013107 *  0.625714 *  0.271214 *   0.00000    1.000000    
    705 C1    c    0.009000 *  0.641786 *  0.184643 *   0.00000    1.000000    
    706 C1    c    0.056429 *  0.657143 *  0.184643 *   0.00000    1.000000    
    707 C1    c   -0.026786 *  0.667500 *  0.157143 *   0.00000    1.000000    
    708 C1    c   -0.013643 *  0.707857 *  0.131071 *   0.00000    1.000000    
    709 C1    c    0.062500 *  0.641786 *  0.271214 *   0.00000    1.000000    
    710 C1    c    0.083571 *  0.657143 *  0.228786 *   0.00000    1.000000    
    711 C1    c    0.071071 *  0.667500 *  0.315357 *   0.00000    1.000000    
    712 C1    c    0.100357 *  0.707857 *  0.315357 *   0.00000    1.000000    
    713 C1    c    0.026786 *  0.667500 *  0.342857 *   0.00000    1.000000    
    714 C1    c    0.013643 *  0.707857 *  0.368929 *   0.00000    1.000000    
    715 C1    c    0.114286 *  0.698929 *  0.228786 *   0.00000    1.000000    
    716 C1    c    0.122500 *  0.724036 *  0.271214 *   0.00000    1.000000    
    717 C1    c    0.070000 *  0.698929 *  0.157143 *   0.00000    1.000000    
    718 C1    c    0.035714 *  0.724036 *  0.131071 *   0.00000    1.000000    
    719 C1    c    0.086786 *  0.750000 *  0.342857 *   0.00000    1.000000    
    720 C1    c    0.044286 *  0.750000 *  0.368929 *   0.00000    1.000000    
    721 C1    c    0.083571 *  0.092857 *  0.478786 *   0.00000    1.000000    
    722 C1    c    0.062500 *  0.108214 *  0.521214 *   0.00000    1.000000    
    723 C1    c    0.056429 *  0.092857 *  0.434643 *   0.00000    1.000000    
    724 C1    c    0.009000 *  0.108214 *  0.434643 *   0.00000    1.000000    
    725 C1    c    0.105714 *  0.024929 *  0.434643 *   0.00000    1.000000    
    726 C1    c    0.105714 * -0.024929 *  0.434643 *   0.00000    1.000000    
    727 C1    c    0.114286 *  0.051071 *  0.478786 *   0.00000    1.000000    
    728 C1    c    0.122500 *  0.025964 *  0.521214 *   0.00000    1.000000    
    729 C1    c    0.070000 *  0.051071 *  0.407143 *   0.00000    1.000000    
    730 C1    c    0.035714 *  0.025964 *  0.381071 *   0.00000    1.000000    
    731 C1    c    0.013107 *  0.124286 *  0.521214 *   0.00000    1.000000    
    732 C1    c   -0.013107 *  0.124286 *  0.478786 *   0.00000    1.000000    
    733 C1    c   -0.009000 *  0.108214 *  0.565357 *   0.00000    1.000000    
    734 C1    c   -0.056429 *  0.092857 *  0.565357 *   0.00000    1.000000    
    735 C1    c    0.071071 *  0.082500 *  0.565357 *   0.00000    1.000000    
    736 C1    c    0.100357 *  0.042143 *  0.565357 *   0.00000    1.000000    
    737 C1    c    0.026786 *  0.082500 *  0.592857 *   0.00000    1.000000    
    738 C1    c    0.013643 *  0.042143 *  0.618929 *   0.00000    1.000000    
    739 C1    c   -0.062500 *  0.108214 *  0.478786 *   0.00000    1.000000    
    740 C1    c   -0.083571 *  0.092857 *  0.521214 *   0.00000    1.000000    
    741 C1    c   -0.071071 *  0.082500 *  0.434643 *   0.00000    1.000000    
    742 C1    c   -0.100357 *  0.042143 *  0.434643 *   0.00000    1.000000    
    743 C1    c   -0.026786 *  0.082500 *  0.407143 *   0.00000    1.000000    
    744 C1    c   -0.013643 *  0.042143 *  0.381071 *   0.00000    1.000000    
    745 C1    c   -0.114286 *  0.051071 *  0.521214 *   0.00000    1.000000    
    746 C1    c   -0.122500 *  0.025964 *  0.478786 *   0.00000    1.000000    
    747 C1    c   -0.105714 *  0.024929 *  0.565357 *   0.00000    1.000000    
    748 C1    c   -0.105714 * -0.024929 *  0.565357 *   0.00000    1.000000    
    749 C1    c   -0.070000 *  0.051071 *  0.592857 *   0.00000    1.000000    
    750 C1    c   -0.035714 *  0.025964 *  0.618929 *   0.00000    1.000000    
    751 C1    c   -0.122500 * -0.025964 *  0.478786 *   0.00000    1.000000    
    752 C1    c   -0.114286 * -0.051071 *  0.521214 *   0.00000    1.000000    
    753 C1    c   -0.100357 * -0.042143 *  0.434643 *   0.00000    1.000000    
    754 C1    c   -0.071071 * -0.082500 *  0.434643 *   0.00000    1.000000    
    755 C1    c   -0.086786 *  0.000000 *  0.407143 *   0.00000    1.000000    
    756 C1    c   -0.044286 *  0.000000 *  0.381071 *   0.00000    1.000000    
    757 C1    c   -0.083571 * -0.092857 *  0.521214 *   0.00000    1.000000    
    758 C1    c   -0.062500 * -0.108214 *  0.478786 *   0.00000    1.000000    
    759 C1    c   -0.056429 * -0.092857 *  0.565357 *   0.00000    1.000000    
    760 C1    c   -0.009000 * -0.108214 *  0.565357 *   0.00000    1.000000    
    761 C1    c   -0.070000 * -0.051071 *  0.592857 *   0.00000    1.000000    
    762 C1    c   -0.035714 * -0.025964 *  0.618929 *   0.00000    1.000000    
    763 C1    c   -0.013107 * -0.124286 *  0.478786 *   0.00000    1.000000    
    764 C1    c    0.013107 * -0.124286 *  0.521214 *   0.00000    1.000000    
    765 C1    c    0.009000 * -0.108214 *  0.434643 *   0.00000    1.000000    
    766 C1    c    0.056429 * -0.092857 *  0.434643 *   0.00000    1.000000    
    767 C1    c   -0.026786 * -0.082500 *  0.407143 *   0.00000    1.000000    
    768 C1    c   -0.013643 * -0.042143 *  0.381071 *   0.00000    1.000000    
    769 C1    c    0.062500 * -0.108214 *  0.521214 *   0.00000    1.000000    
    770 C1    c    0.083571 * -0.092857 *  0.478786 *   0.00000    1.000000    
    771 C1    c    0.071071 * -0.082500 *  0.565357 *   0.00000    1.000000    
    772 C1    c    0.100357 * -0.042143 *  0.565357 *   0.00000    1.000000    
    773 C1    c    0.026786 * -0.082500 *  0.592857 *   0.00000    1.000000    
    774 C1    c    0.013643 * -0.042143 *  0.618929 *   0.00000    1.000000    
    775 C1    c    0.114286 * -0.051071 *  0.478786 *   0.00000    1.000000    
    776 C1    c    0.122500 * -0.025964 *  0.521214 *   0.00000    1.000000    
    777 C1    c    0.070000 * -0.051071 *  0.407143 *   0.00000    1.000000    
    778 C1    c    0.035714 * -0.025964 *  0.381071 *   0.00000    1.000000    
    779 C1    c    0.086786 *  0.000000 *  0.592857 *   0.00000    1.000000    
    780 C1    c    0.044286 *  0.000000 *  0.618929 *   0.00000    1.000000    
    781 C1    c    0.333571 *  0.342857 *  0.478786 *   0.00000    1.000000    
    782 C1    c    0.312500 *  0.358214 *  0.521214 *   0.00000    1.000000    
    783 C1    c    0.306429 *  0.342857 *  0.434643 *   0.00000    1.000000    
    784 C1    c    0.259000 *  0.358214 *  0.434643 *   0.00000    1.000000    
    785 C1    c    0.355714 *  0.274929 *  0.434643 *   0.00000    1.000000    
    786 C1    c    0.355714 *  0.225071 *  0.434643 *   0.00000    1.000000    
    787 C1    c    0.364286 *  0.301071 *  0.478786 *   0.00000    1.000000    
    788 C1    c    0.372500 *  0.275964 *  0.521214 *   0.00000    1.000000    
    789 C1    c    0.320000 *  0.301071 *  0.407143 *   0.00000    1.000000    
    790 C1    c    0.285714 *  0.275964 *  0.381071 *   0.00000    1.000000    
    791 C1    c    0.263107 *  0.374286 *  0.521214 *   0.00000    1.000000    
    792 C1    c    0.236893 *  0.374286 *  0.478786 *   0.00000    1.000000    
    793 C1    c    0.241000 *  0.358214 *  0.565357 *   0.00000    1.000000    
    794 C1    c    0.193571 *  0.342857 *  0.565357 *   0.00000    1.000000    
    795 C1    c    0.321071 *  0.332500 *  0.565357 *   0.00000    1.000000    
    796 C1    c    0.350357 *  0.292143 *  0.565357 *   0.00000    1.000000    
    797 C1    c    0.276786 *  0.332500 *  0.592857 *   0.00000    1.000000    
    798 C1    c    0.263643 *  0.292143 *  0.618929 *   0.00000    1.000000    
    799 C1    c    0.187500 *  0.358214 *  0.478786 *   0.00000    1.000000    
    800 C1    c    0.166429 *  0.342857 *  0.521214 *   0.00000    1.000000    
    801 C1    c    0.178929 *  0.332500 *  0.434643 *   0.00000    1.000000    
    802 C1    c    0.149643 *  0.292143 *  0.434643 *   0.00000    1.000000    
    803 C1    c    0.223214 *  0.332500 *  0.407143 *   0.00000    1.000000    
    804 C1    c    0.236357 *  0.292143 *  0.381071 *   0.00000    1.000000    
    805 C1    c    0.135714 *  0.301071 *  0.521214 *   0.00000    1.000000    
    806 C1    c    0.127500 *  0.275964 *  0.478786 *   0.00000    1.000000    
    807 C1    c    0.144286 *  0.274929 *  0.565357 *   0.00000    1.000000    
    808 C1    c    0.144286 *  0.225071 *  0.565357 *   0.00000    1.000000    
    809 C1    c    0.180000 *  0.301071 *  0.592857 *   0.00000    1.000000    
    810 C1    c    0.214286 *  0.275964 *  0.618929 *   0.00000    1.000000    
    811 C1    c    0.127500 *  0.224036 *  0.478786 *   0.00000    1.000000    
    812 C1    c    0.135714 *  0.198929 *  0.521214 *   0.00000    1.000000    
    813 C1    c    0.149643 *  0.207857 *  0.434643 *   0.00000    1.000000    
    814 C1    c    0.178929 *  0.167500 *  0.434643 *   0.00000    1.000000    
    815 C1    c    0.163214 *  0.250000 *  0.407143 *   0.00000    1.000000    
    816 C1    c    0.205714 *  0.250000 *  0.381071 *   0.00000    1.000000    
    817 C1    c    0.166429 *  0.157143 *  0.521214 *   0.00000    1.000000    
    818 C1    c    0.187500 *  0.141786 *  0.478786 *   0.00000    1.000000    
    819 C1    c    0.193571 *  0.157143 *  0.565357 *   0.00000    1.000000    
    820 C1    c    0.241000 *  0.141786 *  0.565357 *   0.00000    1.000000    
    821 C1    c    0.180000 *  0.198929 *  0.592857 *   0.00000    1.000000    
    822 C1    c    0.214286 *  0.224036 *  0.618929 *   0.00000    1.000000    
    823 C1    c    0.236893 *  0.125714 *  0.478786 *   0.00000    1.000000    
    824 C1    c    0.263107 *  0.125714 *  0.521214 *   0.00000    1.000000    
    825 C1    c    0.259000 *  0.141786 *  0.434643 *   0.00000    1.000000    
    826 C1    c    0.306429 *  0.157143 *  0.434643 *   0.00000    1.000000    
    827 C1    c    0.223214 *  0.167500 *  0.407143 *   0.00000    1.000000    
    828 C1    c    0.236357 *  0.207857 *  0.381071 *   0.00000    1.000000    
    829 C1    c    0.312500 *  0.141786 *  0.521214 *   0.00000    1.000000    
    830 C1    c    0.333571 *  0.157143 *  0.478786 *   0.00000    1.000000    
    831 C1    c    0.321071 *  0.167500 *  0.565357 *   0.00000    1.000000    
    832 C1    c    0.350357 *  0.207857 *  0.565357 *   0.00000    1.000000    
    833 C1    c    0.276786 *  0.167500 *  0.592857 *   0.00000    1.000000    
    834 C1    c    0.263643 *  0.207857 *  0.618929 *   0.00000    1.000000    
    835 C1    c    0.364286 *  0.198929 *  0.478786 *   0.00000    1.000000    
    836 C1    c    0.372500 *  0.224036 *  0.521214 *   0.00000    1.000000    
    837 C1    c    0.320000 *  0.198929 *  0.407143 *   0.00000    1.000000    
    838 C1    c    0.285714 *  0.224036 *  0.381071 *   0.00000    1.000000    
    839 C1    c    0.336786 *  0.250000 *  0.592857 *   0.00000    1.000000    
    840 C1    c    0.294286 *  0.250000 *  0.618929 *   0.00000    1.000000    
    841 C1    c    0.333571 *  0.092857 *  0.728786 *   0.00000    1.000000    
    842 C1    c    0.312500 *  0.108214 *  0.771214 *   0.00000    1.000000    
    843 C1    c    0.306429 *  0.092857 *  0.684643 *   0.00000    1.000000    
    844 C1    c    0.259000 *  0.108214 *  0.684643 *   0.00000    1.000000    
    845 C1    c    0.355714 *  0.024929 *  0.684643 *   0.00000    1.000000    
    846 C1    c    0.355714 * -0.024929 *  0.684643 *   0.00000    1.000000    
    847 C1    c    0.364286 *  0.051071 *  0.728786 *   0.00000    1.000000    
    848 C1    c    0.372500 *  0.025964 *  0.771214 *   0.00000    1.000000    
    849 C1    c    0.320000 *  0.051071 *  0.657143 *   0.00000    1.000000    
    850 C1    c    0.285714 *  0.025964 *  0.631071 *   0.00000    1.000000    
    851 C1    c    0.263107 *  0.124286 *  0.771214 *   0.00000    1.000000    
    852 C1    c    0.236893 *  0.124286 *  0.728786 *   0.00000    1.000000    
    853 C1    c    0.241000 *  0.108214 *  0.815357 *   0.00000    1.000000    
    854 C1    c    0.193571 *  0.092857 *  0.815357 *   0.00000    1.000000    
    855 C1    c    0.321071 *  0.082500 *  0.815357 *   0.00000    1.000000    
    856 C1    c    0.350357 *  0.042143 *  0.815357 *   0.00000    1.000000    
    857 C1    c    0.276786 *  0.082500 *  0.842857 *   0.00000    1.000000    
    858 C1    c    0.263643 *  0.042143 *  0.868929 *   0.00000    1.000000    
    859 C1    c    0.187500 *  0.108214 *  0.728786 *   0.00000    1.000000    
    860 C1    c    0.166429 *  0.092857 *  0.771214 *   0.00000    1.000000    
    861 C1    c    0.178929 *  0.082500 *  0.684643 *   0.00000    1.000000    
    862 C1    c    0.149643 *  0.042143 *  0.684643 *   0.00000    1.000000    
    863 C1    c    0.223214 *  0.082500 *  0.657143 *   0.00000    1.000000    
    864 C1    c    0.236357 *  0.042143 *  0.631071 *   0.00000    1.000000    
    865 C1    c    0.135714 *  0.051071 *  0.771214 *   0.00000    1.000000    
    866 C1    c    0.127500 *  0.025964 *  0.728786 *   0.00000    1.000000    
    867 C1    c    0.144286 *  0.024929 *  0.815357 *   0.00000    1.000000    
    868 C1    c    0.144286 * -0.024929 *  0.815357 *   0.00000    1.000000    
    869 C1    c    0.180000 *  0.051071 *  0.842857 *   0.00000    1.000000    
    870 C1    c    0.214286 *  0.025964 *  0.868929 *   0.00000    1.000000    
    871 C1    c    0.127500 * -0.025964 *  0.728786 *   0.00000    1.000000    
    872 C1    c    0.135714 * -0.051071 *  0.771214 *   0.00000    1.000000    
    873 C1    c    0.149643 * -0.042143 *  0.684643 *   0.00000    1.000000    
    874 C1    c    0.178929 * -0.082500 *  0.684643 *   0.00000    1.000000    
    875 C1    c    0.163214 *  0.000000 *  0.657143 *   0.00000    1.000000    
    876 C1    c    0.205714 *  0.000000 *  0.631071 *   0.00000    1.000000    
    877 C1    c    0.166429 * -0.092857 *  0.771214 *   0.00000    1.000000    
    878 C1    c    0.187500 * -0.108214 *  0.728786 *   0.00000    1.000000    
    879 C1    c    0.193571 * -0.092857 *  0.815357 *   0.00000    1.000000    
    880 C1    c    0.241000 * -0.108214 *  0.815357 *   0.00000    1.000000    
    881 C1    c    0.180000 * -0.051071 *  0.842857 *   0.00000    1.000000    
    882 C1    c    0.214286 * -0.025964 *  0.868929 *   0.00000    1.000000    
    883 C1    c    0.236893 * -0.124286 *  0.728786 *   0.00000    1.000000    
    884 C1    c    0.263107 * -0.124286 *  0.771214 *   0.00000    1.000000    
    885 C1    c    0.259000 * -0.108214 *  0.684643 *   0.00000    1.000000    
    886 C1    c    0.306429 * -0.092857 *  0.684643 *   0.00000    1.000000    
    887 C1    c    0.223214 * -0.082500 *  0.657143 *   0.00000    1.000000    
    888 C1    c    0.236357 * -0.042143 *  0.631071 *   0.00000    1.000000    
    889 C1    c    0.312500 * -0.108214 *  0.771214 *   0.00000    1.000000    
    890 C1    c    0.333571 * -0.092857 *  0.728786 *   0.00000    1.000000    
    891 C1    c    0.321071 * -0.082500 *  0.815357 *   0.00000    1.000000    
    892 C1    c    0.350357 * -0.042143 *  0.815357 *   0.00000    1.000000    
    893 C1    c    0.276786 * -0.082500 *  0.842857 *   0.00000    1.000000    
    894 C1    c    0.263643 * -0.042143 *  0.868929 *   0.00000    1.000000    
    895 C1    c    0.364286 * -0.051071 *  0.728786 *   0.00000    1.000000    
    896 C1    c    0.372500 * -0.025964 *  0.771214 *   0.00000    1.000000    
    897 C1    c    0.320000 * -0.051071 *  0.657143 *   0.00000    1.000000    
    898 C1    c    0.285714 * -0.025964 *  0.631071 *   0.00000    1.000000    
    899 C1    c    0.336786 *  0.000000 *  0.842857 *   0.00000    1.000000    
    900 C1    c    0.294286 *  0.000000 *  0.868929 *   0.00000    1.000000    
    901 C1    c    0.083571 *  0.342857 *  0.728786 *   0.00000    1.000000    
    902 C1    c    0.062500 *  0.358214 *  0.771214 *   0.00000    1.000000    
    903 C1    c    0.056429 *  0.342857 *  0.684643 *   0.00000    1.000000    
    904 C1    c    0.009000 *  0.358214 *  0.684643 *   0.00000    1.000000    
    905 C1    c    0.105714 *  0.274929 *  0.684643 *   0.00000    1.000000    
    906 C1    c    0.105714 *  0.225071 *  0.684643 *   0.00000    1.000000    
    907 C1    c    0.114286 *  0.301071 *  0.728786 *   0.00000    1.000000    
    908 C1    c    0.122500 *  0.275964 *  0.771214 *   0.00000    1.000000    
    909 C1    c    0.070000 *  0.301071 *  0.657143 *   0.00000    1.000000    
    910 C1    c    0.035714 *  0.275964 *  0.631071 *   0.00000    1.000000    
    911 C1    c    0.013107 *  0.374286 *  0.771214 *   0.00000    1.000000    
    912 C1    c   -0.013107 *  0.374286 *  0.728786 *   0.00000    1.000000    
    913 C1    c   -0.009000 *  0.358214 *  0.815357 *   0.00000    1.000000    
    914 C1    c   -0.056429 *  0.342857 *  0.815357 *   0.00000    1.000000    
    915 C1    c    0.071071 *  0.332500 *  0.815357 *   0.00000    1.000000    
    916 C1    c    0.100357 *  0.292143 *  0.815357 *   0.00000    1.000000    
    917 C1    c    0.026786 *  0.332500 *  0.842857 *   0.00000    1.000000    
    918 C1    c    0.013643 *  0.292143 *  0.868929 *   0.00000    1.000000    
    919 C1    c   -0.062500 *  0.358214 *  0.728786 *   0.00000    1.000000    
    920 C1    c   -0.083571 *  0.342857 *  0.771214 *   0.00000    1.000000    
    921 C1    c   -0.071071 *  0.332500 *  0.684643 *   0.00000    1.000000    
    922 C1    c   -0.100357 *  0.292143 *  0.684643 *   0.00000    1.000000    
    923 C1    c   -0.026786 *  0.332500 *  0.657143 *   0.00000    1.000000    
    924 C1    c   -0.013643 *  0.292143 *  0.631071 *   0.00000    1.000000    
    925 C1    c   -0.114286 *  0.301071 *  0.771214 *   0.00000    1.000000    
    926 C1    c   -0.122500 *  0.275964 *  0.728786 *   0.00000    1.000000    
    927 C1    c   -0.105714 *  0.274929 *  0.815357 *   0.00000    1.000000    
    928 C1    c   -0.105714 *  0.225071 *  0.815357 *   0.00000    1.000000    
    929 C1    c   -0.070000 *  0.301071 *  0.842857 *   0.00000    1.000000    
    930 C1    c   -0.035714 *  0.275964 *  0.868929 *   0.00000    1.000000    
    931 C1    c   -0.122500 *  0.224036 *  0.728786 *   0.00000    1.000000    
    932 C1    c   -0.114286 *  0.198929 *  0.771214 *   0.00000    1.000000    
    933 C1    c   -0.100357 *  0.207857 *  0.684643 *   0.00000    1.000000    
    934 C1    c   -0.071071 *  0.167500 *  0.684643 *   0.00000    1.000000    
    935 C1    c   -0.086786 *  0.250000 *  0.657143 *   0.00000    1.000000    
    936 C1    c   -0.044286 *  0.250000 *  0.631071 *   0.00000    1.000000    
    937 C1    c   -0.083571 *  0.157143 *  0.771214 *   0.00000    1.000000    
    938 C1    c   -0.062500 *  0.141786 *  0.728786 *   0.00000    1.000000    
    939 C1    c   -0.056429 *  0.157143 *  0.815357 *   0.00000    1.000000    
    940 C1    c   -0.009000 *  0.141786 *  0.815357 *   0.00000    1.000000    
    941 C1    c   -0.070000 *  0.198929 *  0.842857 *   0.00000    1.000000    
    942 C1    c   -0.035714 *  0.224036 *  0.868929 *   0.00000    1.000000    
    943 C1    c   -0.013107 *  0.125714 *  0.728786 *   0.00000    1.000000    
    944 C1    c    0.013107 *  0.125714 *  0.771214 *   0.00000    1.000000    
    945 C1    c    0.009000 *  0.141786 *  0.684643 *   0.00000    1.000000    
    946 C1    c    0.056429 *  0.157143 *  0.684643 *   0.00000    1.000000    
    947 C1    c   -0.026786 *  0.167500 *  0.657143 *   0.00000    1.000000    
    948 C1    c   -0.013643 *  0.207857 *  0.631071 *   0.00000    1.000000    
    949 C1    c    0.062500 *  0.141786 *  0.771214 *   0.00000    1.000000    
    950 C1    c    0.083571 *  0.157143 *  0.728786 *   0.00000    1.000000    
    951 C1    c    0.071071 *  0.167500 *  0.815357 *   0.00000    1.000000    
    952 C1    c    0.100357 *  0.207857 *  0.815357 *   0.00000    1.000000    
    953 C1    c    0.026786 *  0.167500 *  0.842857 *   0.00000    1.000000    
    954 C1    c    0.013643 *  0.207857 *  0.868929 *   0.00000    1.000000    
    955 C1    c    0.114286 *  0.198929 *  0.728786 *   0.00000    1.000000    
    956 C1    c    0.122500 *  0.224036 *  0.771214 *   0.00000    1.000000    
    957 C1    c    0.070000 *  0.198929 *  0.657143 *   0.00000    1.000000    
    958 C1    c    0.035714 *  0.224036 *  0.631071 *   0.00000    1.000000    
    959 C1    c    0.086786 *  0.250000 *  0.842857 *   0.00000    1.000000    
    960 C1    c    0.044286 *  0.250000 *  0.868929 *   0.00000    1.000000    
    961 C1    c    0.583571 *  0.592857 * -0.021214 *   0.00000    1.000000    
    962 C1    c    0.562500 *  0.608214 *  0.021214 *   0.00000    1.000000    
    963 C1    c    0.556429 *  0.592857 * -0.065357 *   0.00000    1.000000    
    964 C1    c    0.509000 *  0.608214 * -0.065357 *   0.00000    1.000000    
[...]
  5542     1660.5498                  0.00002145727311
  5543     1660.6947                  0.00001063289449
  5544     1661.0225                  0.00000606838636
  5545     1661.1804                  0.00000338214492
  5546     1661.6364                  0.00001929884536
  5547     1661.9401                  0.00004845064315
  5548     1662.0364                  0.00004251081945
  5549     1662.2112                  0.00004059097309
  5550     1662.4355                  0.00005860680356
  5551     1662.5336                  0.00005291644144
  5552     1662.7774                  0.00003408109598
  5553     1663.0023                  0.00002312506898
  5554     1663.2819                  0.00000268662935
  5555     1663.7596                  0.00000291893360
  5556     1663.9958                  0.00001226599703
  5557     1664.0563                  0.00001091266904
  5558     1664.3118                  0.00001059062376
  5559     1664.5200                  0.00004241152944
  5560     1664.6696                  0.00005207765747
  5561     1664.9360                  0.00001900303280
  5562     1665.3616                  0.00007167006574
  5563     1665.4290                  0.00006910431704
  5564     1666.4206                  0.00000000000000
  5565     1667.6652                  0.00000011566149
  5566     1668.0404                  0.00000445394564
  5567     1668.1171                  0.00000449703749
  5568     1668.7546                  0.00000001626428
  5569     1673.0072                  0.00000095981323
  5570     1673.5359                  0.00000167493266
  5571     1673.9830                  0.00000423708902
  5572     1674.3309                  0.00000802644370
  5573     1674.9739                  0.00000450270194
  5574     1675.7756                  0.00000153267894
  5575     1676.1196                  0.00000424276695
  5576     1676.2875                  0.00000555694043
  5577     1676.5343                  0.00000530528269
  5578     1676.7466                  0.00001215574333
  5579     1677.0517                  0.00001710543276
  5580     1677.2627                  0.00002045922287
  5581     1677.4407                  0.00001956960640
  5582     1677.6819                  0.00001372818682
  5583     1678.0192                  0.00001375665860
  5584     1678.4254                  0.00003013061362
  5585     1678.8031                  0.00001829724790
  5586     1679.4530                  0.00015355952960
  5587     1679.5611                  0.00017891126312
  5588     1679.8191                  0.00004007353377
  5589     1680.2688                  0.00000944968127
  5590     1680.4459                  0.00001418183758
  5591     1680.8026                  0.00001096021600
  5592     1680.9755                  0.00001776518932
  5593     1681.2314                  0.00000419419387
  5594     1681.4587                  0.00000728336393
  5595     1681.6574                  0.00001613182178
  5596     1681.7646                  0.00001734892975
  5597     1681.9051                  0.00001034924234
  5598     1682.1503                  0.00002129392790
  5599     1682.2454                  0.00002711835913
  5600     1682.4438                  0.00001476170936
  5601     1682.7364                  0.00000717283830
  5602     1682.9189                  0.00000957506818
  5603     1683.0971                  0.00001178695007
  5604     1683.3922                  0.00000973263898
  5605     1683.6589                  0.00015342159260
  5606     1683.7067                  0.00014559715215
  5607     1683.8607                  0.00002831944226
  5608     1683.9724                  0.00002736579135
  5609     1684.2134                  0.00001386407594
  5610     1684.4503                  0.00002139347153
  5611     1684.5977                  0.00004545963256
  5612     1684.6152                  0.00006468228597
  5613     1684.7897                  0.00001802389177
  5614     1685.3783                  0.00000178603076
  5615     1685.6715                  0.00000274533141
  5616     1686.0093                  0.00000385323029
  5617     1686.6933                  0.00000198935200
  5618     1687.4897                  0.00000517251178
  5619     1687.6687                  0.00000733177634
  5620     1687.8393                  0.00000801516100
  5621     1688.0228                  0.00001648627871
  5622     1688.2070                  0.00002360025154
  5623     1688.3129                  0.00002732625502
  5624     1688.4214                  0.00001344197602
  5625     1688.8159                  0.00000556109217
  5626     1688.9676                  0.00000524366699
  5627     1689.4788                  0.00000276041810
  5628     1689.8768                  0.00000052822901
  5629     1693.4670                  0.00000003060185
  5630     1693.8038                  0.00000005728081
  5631     1694.3067                  0.00000004852732
  5632     1694.8672                  0.00000002183758
  5633     1699.8567                  0.00000070667312
  5634     1700.2206                  0.00000244613595
  5635     1700.2778                  0.00000234886553
  5636     1700.4789                  0.00000123417451
  5637     1700.7127                  0.00000047696441
  5638     1701.3299                  0.00000360382683
  5639     1701.4287                  0.00000435436232
  5640     1701.5882                  0.00000297002288
  5641     1702.0692                  0.00000339629207
  5642     1702.1934                  0.00000438876370
  5643     1702.3783                  0.00000485526983
  5644     1702.6279                  0.00000258857604
  5645     1703.1230                  0.00000801838112
  5646     1703.2656                  0.00001166808174
  5647     1703.5612                  0.00002660501415
  5648     1703.6354                  0.00003755419849
  5649     1703.8737                  0.00003381731302
  5650     1704.0473                  0.00003669139661
  5651     1704.1958                  0.00001721342021
  5652     1704.3125                  0.00000747111902
  5653     1704.5008                  0.00000585835834
  5654     1704.9257                  0.00015043094091
  5655     1704.9842                  0.00018261829704
  5656     1705.0781                  0.00007301401760
  5657     1705.1852                  0.00004326915206
  5658     1705.3026                  0.00001447875775
  5659     1705.4971                  0.00001011688885
  5660     1705.6942                  0.00000769078347
  5661     1705.8330                  0.00000614373932
  5662     1705.9594                  0.00001117761933
  5663     1706.1050                  0.00000876534886
  5664     1706.3920                  0.00000130131716
  5665     1707.7809                  0.00000146015369
  5666     1707.9900                  0.00000298661308
  5667     1708.2107                  0.00000480915853
  5668     1708.3684                  0.00001358934480
  5669     1708.4828                  0.00000439296848
  5670     1708.7696                  0.00000938789651
  5671     1708.8721                  0.00000443250116
  5672     1709.0336                  0.00000240052447
  5673     1709.9888                  0.00000439822632
  5674     1710.2562                  0.00001083992853
  5675     1710.5306                  0.00001520098284
  5676     1710.7568                  0.00009747023822
  5677     1710.9391                  0.00020376660603
  5678     1711.0377                  0.00020411154708
  5679     1711.1435                  0.00020931839970
  5680     1711.4482                  0.00039489062952
  5681     1711.5865                  0.00507358160829
  5682     1711.6083                  0.00474402933143
  5683     1711.7135                  0.00449966903374
  5684     1711.7659                  0.00456529372272
  5685     1712.1050                  0.00058182707315
  5686     1712.1623                  0.00219569712130
  5687     1712.2668                  0.00223825407815
  5688     1712.4223                  0.00035679136316
  5689     1712.8213                  0.00035027719304
  5690     1712.8717                  0.00035116410110
  5691     1713.1395                  0.00005246443420
  5692     1713.2410                  0.00005892054404
  5693     1714.4073                  0.00012287996161
  5694     1714.4783                  0.00012374455241
  5695     1714.5880                  0.00003715312059
  5696     1714.7365                  0.00006156491745
  5697     1714.8201                  0.00005383572912
  5698     1715.1143                  0.00000946540222
  5699     1715.3370                  0.00001145533865
  5700     1715.5344                  0.00002037112869
  5701     1715.6045                  0.00001939250662
  5702     1715.7864                  0.00008191467025
  5703     1715.8179                  0.00007997982775
  5704     1716.0295                  0.00001732095300
  5705     1716.2864                  0.00006788524285
  5706     1716.3709                  0.00025817107309
  5707     1716.3910                  0.00024813192307
  5708     1716.6219                  0.00016457984636
  5709     1716.6695                  0.00016683990945
  5710     1716.8774                  0.00001904180386
  5711     1716.9904                  0.00002635263624
  5712     1717.1637                  0.00001258281588
  5713     1717.5736                  0.00001294902434
  5714     1717.6684                  0.00000893875217
  5715     1718.1217                  0.00000513223804
  5716     1718.4081                  0.00001403009588
  5717     1718.5258                  0.00008382717011
  5718     1718.6154                  0.00007821129931
  5719     1718.8163                  0.00000595084059
  5720     1719.2613                  0.00000162996113
  5721     1720.4010                  0.00000327190247
  5722     1720.6125                  0.00005124988869
  5723     1720.6709                  0.00005338484219
  5724     1721.0852                  0.00000155511631
  5725     1723.5572                  0.00000068073766
  5726     1723.8994                  0.00000323212773
  5727     1724.4621                  0.00000288216406
  5728     1724.8987                  0.00000033200055
  5729     1743.1314                  0.00005459418331
  5730     1743.2360                  0.00007004621506
  5731     1743.3649                  0.00005853466355
  5732     1743.4429                  0.00019641334659
  5733     1743.4613                  0.00024062359544
  5734     1743.5234                  0.00011157803981
  5735     1743.6195                  0.00033275675323
  5736     1743.6497                  0.00047983697216
  5737     1743.6999                  0.00014230037270
  5738     1743.8662                  0.00008238273038
  5739     1743.9145                  0.00008202645546
  5740     1744.0057                  0.00063812200275
  5741     1744.0731                  0.00060651580582
  5742     1744.4726                  0.00013880500387
  5743     1744.5308                  0.00020399907834
  5744     1744.5911                  0.00106860086569
  5745     1744.6288                  0.00125278914208
  5746     1744.7347                  0.00027178461903
  5747     1744.9312                  0.00014134604961
  5748     1744.9352                  0.00014833998445
  5749     1745.2747                  0.00003279724505
  5750     1745.6945                  0.00126511492598
  5751     1745.7451                  0.00126802061461
  5752     1745.9828                  0.00007558792598
  5753     1746.1305                  0.00004662779445
  5754     1746.3302                  0.00036352244506
  5755     1746.4191                  0.00035392540519
  5756     1746.5602                  0.00039391859805
  5757     1746.7101                  0.00034852928909
  5758     1746.8498                  0.00007606276999
  5759     1747.1295                  0.00004996017175
  5760     1748.4689                  0.00000000000000
--------------------------------------------------------------------------------
  Thermal conductivity =     1.204457 W/(m.K) 
--------------------------------------------------------------------------------

--------------------------------------------------------------------------------
  Phonon properties (per mole of unit cells): Temperature =    300.000 K
--------------------------------------------------------------------------------
  Zero point energy            =      350.282058 eV
  Entropy                      =        0.098562 eV/K
                               =     9509.714035 J/(mol.K)
  Helmholtz free-energy        =   -15082.783399 eV
                               = -1455257.909234 kJmol-1
  Free energy (equipartition)  =   -15214.216652 eV
  - T*S       (equipartition)  =       58.431010 eV
  Uvib        (equipartition)  =      148.674900 eV
  Mean kinetic energy          =      184.170278 eV
  Heat capacity - const volume =        0.151246 eV/K
                               =    14592.928917 J/(mol.K)
--------------------------------------------------------------------------------

  Phonon density of states : 

  Broadening factor =     0.0500

--------------------------------------------------------------------------------
 Frequency (cm-1) Density of States                                             
--------------------------------------------------------------------------------
    0.00000 |****                                                          0.002
   28.52672 |**********                                                    0.005
   57.05344 |***************                                               0.008
   85.58016 |************                                                  0.007
  114.10688 |*********                                                     0.005
  142.63360 |*******                                                       0.004
  171.16032 |******                                                        0.003
  199.68704 |******                                                        0.003
  228.21376 |**********                                                    0.006
  256.74048 |****************                                              0.008
  285.26720 |******************                                            0.009
  313.79392 |**********************                                        0.011
  342.32064 |****************************                                  0.014
  370.84736 |************************************                          0.019
  399.37409 |*********************************                             0.017
  427.90081 |*****************************                                 0.015
  456.42753 |***************************                                   0.014
  484.95425 |***************************                                   0.014
  513.48097 |******************************                                0.016
  542.00769 |***********************************                           0.018
  570.53441 |***********************************                           0.018
  599.06113 |********************************                              0.017
  627.58785 |*******************************************                   0.022
  656.11457 |**************************************************            0.026
  684.64129 |**************************************************            0.026
  713.16801 |********************************************                  0.023
  741.69473 |*****************************************                     0.021
  770.22145 |************************************************              0.025
  798.74817 |*************************************************             0.025
  827.27489 |***************************************                       0.020
  855.80161 |*********************************                             0.017
  884.32833 |*****************************                                 0.015
  912.85505 |****************************                                  0.015
  941.38177 |****************************************                      0.021
  969.90849 |***********************************************               0.024
  998.43521 |*********************************                             0.017
 1026.96193 |**************************                                    0.014
 1055.48865 |***********************************                           0.018
 1084.01537 |****************************************                      0.021
 1112.54209 |***********************************                           0.018
 1141.06881 |**********************************                            0.018
 1169.59553 |*************************************                         0.019
 1198.12226 |*************************************                         0.019
 1226.64898 |**************************                                    0.014
 1255.17570 |********************                                          0.011
 1283.70242 |*********************                                         0.011
 1312.22914 |************************                                      0.013
 1340.75586 |*****************************                                 0.015
 1369.28258 |*******************************                               0.016
 1397.80930 |**********************************                            0.018
 1426.33602 |*********************************                             0.017
 1454.86274 |***************************************                       0.020
 1483.38946 |**********************************************                0.024
 1511.91618 |********************************************************      0.029
 1540.44290 |********************************************************      0.029
 1568.96962 |************************************************************  0.031
 1597.49634 |*********************************************                 0.023
 1626.02306 |******************************                                0.016
 1654.54978 |********************************                              0.017
 1683.07650 |***************************                                   0.014
 1711.60322 |************************                                      0.013
 1740.12994 |**************                                                0.008
 1768.65666 |******                                                        0.004
 1797.18338 |***                                                           0.002
--------------------------------------------------------------------------------



  Time to end of optimisation =   12188.9338 seconds


  Peak dynamic memory used =     670.41 MB 


  Timing analysis for GULP :

--------------------------------------------------------------------------------
  Task / Subroutine                                          Time (Seconds)
--------------------------------------------------------------------------------
  Calculation of real space energy and derivatives              466.1491
  Calculation of Bond Order energy and derivatives              251.3037
  Calculation of molecules and connectivity                      11.3567
  Calculation of phonons                                       6403.8602
  Calculation of scattering                                       0.0000
  Calculation of matrix inversion                              4742.3284
  Disk read/write operations to scratch files                     0.0040
--------------------------------------------------------------------------------
  Total CPU time                                              12188.9338
--------------------------------------------------------------------------------


  LAMMPS file written on channel 26


  Job Finished at 07:05.39 26th July       2013                               

